
     Program PWSCF v.5.4.0 starts on 15May2020 at 12: 8: 4 

     This program is part of the open-source Quantum ESPRESSO suite
     for quantum simulation of materials; please cite
         "P. Giannozzi et al., J. Phys.:Condens. Matter 21 395502 (2009);
          URL http://www.quantum-espresso.org", 
     in publications or presentations arising from this work. More details at
     http://www.quantum-espresso.org/quote

     Parallel version (MPI), running on    32 processors
     R & G space division:  proc/nbgrp/npool/nimage =      32
     Waiting for input...
     Reading input from standard input

     Current dimensions of program PWSCF are:
     Max number of different atomic species (ntypx) = 10
     Max number of k-points (npk) =  40000
     Max angular momentum in pseudopotentials (lmaxx) =  3

     Subspace diagonalization in iterative solution of the eigenvalue problem:
     one sub-group per band group will be used
     scalapack distributed-memory algorithm (size of sub-group:  4*  4 procs)

     Message from routine setup:
     no reason to have ecutrho>4*ecutwfc
 
     Parallelization info
     --------------------
     sticks:   dense  smooth     PW     G-vecs:    dense   smooth      PW
     Min          42      20      5                 5286     1708     261
     Max          43      21      6                 5305     1735     284
     Sum        1369     649    187               169387    55137    8763
 


     bravais-lattice index     =            4
     lattice parameter (alat)  =       5.9815  a.u.
     unit-cell volume          =     777.1420 (a.u.)^3
     number of atoms/cell      =            3
     number of atomic types    =            2
     number of electrons       =        18.00
     number of Kohn-Sham states=           13
     kinetic-energy cutoff     =      65.0000  Ry
     charge density cutoff     =     550.0000  Ry
     convergence threshold     =      1.0E-14
     mixing beta               =       0.1000
     number of iterations used =            8  plain     mixing
     Exchange-correlation      = LDA ( 1  1  0  0 0 0)
     nstep                     =           50


     celldm(1)=   5.981497  celldm(2)=   0.000000  celldm(3)=   4.193148
     celldm(4)=   0.000000  celldm(5)=   0.000000  celldm(6)=   0.000000

     crystal axes: (cart. coord. in units of alat)
               a(1) = (   1.000000   0.000000   0.000000 )  
               a(2) = (  -0.500000   0.866025   0.000000 )  
               a(3) = (   0.000000   0.000000   4.193148 )  

     reciprocal axes: (cart. coord. in units 2 pi/alat)
               b(1) = (  1.000000  0.577350  0.000000 )  
               b(2) = (  0.000000  1.154701  0.000000 )  
               b(3) = (  0.000000  0.000000  0.238484 )  


     PseudoPot. # 1 for Mo read from file:
     ./Mo.pz-n-nc.UPF
     MD5 check sum: 9351746152ce7c48ffce095ea233aab8
     Pseudo is Norm-conserving + core correction, Zval =  6.0
     Generated using "atomic" code by A. Dal Corso  v.5.1.2
     Using radial grid of 1229 points,  2 beta functions with: 
                l(1) =   1
                l(2) =   2

     PseudoPot. # 2 for  S read from file:
     ./S.pz-n-nc.UPF
     MD5 check sum: 6d5ad2fd30125d3fe3dfa4e9fadc32f8
     Pseudo is Norm-conserving + core correction, Zval =  6.0
     Generated using "atomic" code by A. Dal Corso  v.5.1.2
     Using radial grid of 1151 points,  2 beta functions with: 
                l(1) =   0
                l(2) =   1

     atomic species   valence    mass     pseudopotential
        Mo             6.00    95.94000     Mo( 1.00)
        S              6.00    32.06500      S( 1.00)

     12 Sym. Ops. (no inversion) found



   Cartesian axes

     site n.     atom                  positions (alat units)
         1           Mo  tau(   1) = (   0.0000000   0.5773503   2.0965738  )
         2           S   tau(   2) = (   0.5000000   0.2886751   1.5957997  )
         3           S   tau(   3) = (   0.5000000   0.2886751   2.5973479  )

     number of k points=   154  Methfessel-Paxton smearing, width (Ry)=  0.0100

     Number of k-points >= 100: set verbosity='high' to print them.

     Dense  grid:   169387 G-vectors     FFT dimensions: (  45,  45, 192)

     Smooth grid:    55137 G-vectors     FFT dimensions: (  32,  32, 135)

     Largest allocated arrays     est. size (Mb)     dimensions
        Kohn-Sham Wavefunctions         0.05 Mb     (     229,   13)
        NL pseudopotentials             0.06 Mb     (     229,   16)
        Each V/rho on FFT grid          0.19 Mb     (   12150)
        Each G-vector array             0.04 Mb     (    5297)
        G-vector shells                 0.04 Mb     (    5297)
     Largest temporary arrays     est. size (Mb)     dimensions
        Auxiliary wavefunctions         0.18 Mb     (     229,   52)
        Each subspace H/S matrix        0.00 Mb     (      13,   13)
        Each <psi_i|beta_j> matrix      0.00 Mb     (      16,   13)
        Arrays for rho mixing           1.48 Mb     (   12150,    8)

     Check: negative/imaginary core charge=   -0.000002    0.000000

     Initial potential from superposition of free atoms

     starting charge   17.99896, renormalised to   18.00000

     negative rho (up, down):  1.336E-08 0.000E+00
     Starting wfc are   17 randomized atomic wfcs

     total cpu time spent up to now is        2.5 secs

     per-process dynamical memory:    26.8 Mb

     Self-consistent Calculation

     iteration #  1     ecut=    65.00 Ry     beta=0.10
     Davidson diagonalization with overlap
     ethr =  1.00E-02,  avg # of iterations =  2.9

     total cpu time spent up to now is        7.2 secs

     total energy              =     -73.09279708 Ry
     Harris-Foulkes estimate   =     -73.15941981 Ry
     estimated scf accuracy    <       0.40528857 Ry

     iteration #  2     ecut=    65.00 Ry     beta=0.10
     Davidson diagonalization with overlap
     ethr =  2.25E-03,  avg # of iterations =  1.0

     total cpu time spent up to now is       10.0 secs

     total energy              =     -73.07739521 Ry
     Harris-Foulkes estimate   =     -73.11628753 Ry
     estimated scf accuracy    <       0.14305214 Ry

     iteration #  3     ecut=    65.00 Ry     beta=0.10
     Davidson diagonalization with overlap
     ethr =  7.95E-04,  avg # of iterations =  1.1

     total cpu time spent up to now is       12.9 secs

     total energy              =     -73.06338164 Ry
     Harris-Foulkes estimate   =     -73.08967070 Ry
     estimated scf accuracy    <       0.04703414 Ry

     iteration #  4     ecut=    65.00 Ry     beta=0.10
     Davidson diagonalization with overlap
     ethr =  2.61E-04,  avg # of iterations =  3.0

     total cpu time spent up to now is       17.6 secs

     total energy              =     -73.07471922 Ry
     Harris-Foulkes estimate   =     -73.07627340 Ry
     estimated scf accuracy    <       0.00743957 Ry

     iteration #  5     ecut=    65.00 Ry     beta=0.10
     Davidson diagonalization with overlap
     ethr =  4.13E-05,  avg # of iterations =  1.7

     total cpu time spent up to now is       20.8 secs

     total energy              =     -73.07473928 Ry
     Harris-Foulkes estimate   =     -73.07558328 Ry
     estimated scf accuracy    <       0.00272145 Ry

     iteration #  6     ecut=    65.00 Ry     beta=0.10
     Davidson diagonalization with overlap
     ethr =  1.51E-05,  avg # of iterations =  3.0

     total cpu time spent up to now is       26.1 secs

     total energy              =     -73.07302677 Ry
     Harris-Foulkes estimate   =     -73.07728916 Ry
     estimated scf accuracy    <       0.00771133 Ry

     iteration #  7     ecut=    65.00 Ry     beta=0.10
     Davidson diagonalization with overlap
     ethr =  1.51E-05,  avg # of iterations =  2.6

     total cpu time spent up to now is       30.8 secs

     total energy              =     -73.07467440 Ry
     Harris-Foulkes estimate   =     -73.07468800 Ry
     estimated scf accuracy    <       0.00005762 Ry

     iteration #  8     ecut=    65.00 Ry     beta=0.10
     Davidson diagonalization with overlap
     ethr =  3.20E-07,  avg # of iterations =  4.0

     total cpu time spent up to now is       36.8 secs

     total energy              =     -73.07471436 Ry
     Harris-Foulkes estimate   =     -73.07475884 Ry
     estimated scf accuracy    <       0.00017916 Ry

     iteration #  9     ecut=    65.00 Ry     beta=0.10
     Davidson diagonalization with overlap
     ethr =  3.20E-07,  avg # of iterations =  2.0

     total cpu time spent up to now is       40.2 secs

     total energy              =     -73.07472078 Ry
     Harris-Foulkes estimate   =     -73.07472542 Ry
     estimated scf accuracy    <       0.00002346 Ry

     iteration # 10     ecut=    65.00 Ry     beta=0.10
     Davidson diagonalization with overlap
     ethr =  1.30E-07,  avg # of iterations =  1.0

     total cpu time spent up to now is       43.0 secs

     total energy              =     -73.07472115 Ry
     Harris-Foulkes estimate   =     -73.07472260 Ry
     estimated scf accuracy    <       0.00000612 Ry

     iteration # 11     ecut=    65.00 Ry     beta=0.10
     Davidson diagonalization with overlap
     ethr =  3.40E-08,  avg # of iterations =  2.1

     total cpu time spent up to now is       46.5 secs

     total energy              =     -73.07472015 Ry
     Harris-Foulkes estimate   =     -73.07472176 Ry
     estimated scf accuracy    <       0.00000361 Ry

     iteration # 12     ecut=    65.00 Ry     beta=0.10
     Davidson diagonalization with overlap
     ethr =  2.01E-08,  avg # of iterations =  2.9

     total cpu time spent up to now is       51.1 secs

     total energy              =     -73.07472115 Ry
     Harris-Foulkes estimate   =     -73.07472117 Ry
     estimated scf accuracy    <       0.00000007 Ry

     iteration # 13     ecut=    65.00 Ry     beta=0.10
     Davidson diagonalization with overlap
     ethr =  3.71E-10,  avg # of iterations =  3.3

     total cpu time spent up to now is       56.0 secs

     total energy              =     -73.07472120 Ry
     Harris-Foulkes estimate   =     -73.07472118 Ry
     estimated scf accuracy    <       0.00000002 Ry

     iteration # 14     ecut=    65.00 Ry     beta=0.10
     Davidson diagonalization with overlap
     ethr =  1.02E-10,  avg # of iterations =  4.0

     total cpu time spent up to now is       62.1 secs

     total energy              =     -73.07472115 Ry
     Harris-Foulkes estimate   =     -73.07472124 Ry
     estimated scf accuracy    <       0.00000019 Ry

     iteration # 15     ecut=    65.00 Ry     beta=0.10
     Davidson diagonalization with overlap
     ethr =  1.02E-10,  avg # of iterations =  3.8

     total cpu time spent up to now is       68.0 secs

     total energy              =     -73.07472117 Ry
     Harris-Foulkes estimate   =     -73.07472118 Ry
     estimated scf accuracy    <          5.5E-09 Ry

     iteration # 16     ecut=    65.00 Ry     beta=0.10
     Davidson diagonalization with overlap
     ethr =  3.06E-11,  avg # of iterations =  2.1

     total cpu time spent up to now is       72.0 secs

     total energy              =     -73.07472117 Ry
     Harris-Foulkes estimate   =     -73.07472117 Ry
     estimated scf accuracy    <          1.3E-09 Ry

     iteration # 17     ecut=    65.00 Ry     beta=0.10
     Davidson diagonalization with overlap
     ethr =  7.11E-12,  avg # of iterations =  1.3

     total cpu time spent up to now is       74.9 secs

     total energy              =     -73.07472117 Ry
     Harris-Foulkes estimate   =     -73.07472117 Ry
     estimated scf accuracy    <          8.2E-10 Ry

     iteration # 18     ecut=    65.00 Ry     beta=0.10
     Davidson diagonalization with overlap
     ethr =  4.57E-12,  avg # of iterations =  1.0

     total cpu time spent up to now is       77.7 secs

     total energy              =     -73.07472117 Ry
     Harris-Foulkes estimate   =     -73.07472117 Ry
     estimated scf accuracy    <          5.5E-10 Ry

     iteration # 19     ecut=    65.00 Ry     beta=0.10
     Davidson diagonalization with overlap
     ethr =  3.03E-12,  avg # of iterations =  2.1

     total cpu time spent up to now is       81.6 secs

     total energy              =     -73.07472117 Ry
     Harris-Foulkes estimate   =     -73.07472117 Ry
     estimated scf accuracy    <          4.1E-11 Ry

     iteration # 20     ecut=    65.00 Ry     beta=0.10
     Davidson diagonalization with overlap
     ethr =  2.29E-13,  avg # of iterations =  2.1

     total cpu time spent up to now is       85.3 secs

     total energy              =     -73.07472117 Ry
     Harris-Foulkes estimate   =     -73.07472117 Ry
     estimated scf accuracy    <          2.0E-11 Ry

     iteration # 21     ecut=    65.00 Ry     beta=0.10
     Davidson diagonalization with overlap
     ethr =  1.13E-13,  avg # of iterations =  2.1

     total cpu time spent up to now is       88.7 secs

     total energy              =     -73.07472117 Ry
     Harris-Foulkes estimate   =     -73.07472117 Ry
     estimated scf accuracy    <          4.9E-12 Ry

     iteration # 22     ecut=    65.00 Ry     beta=0.10
     Davidson diagonalization with overlap
     ethr =  1.00E-13,  avg # of iterations =  1.0

     total cpu time spent up to now is       91.5 secs

     total energy              =     -73.07472117 Ry
     Harris-Foulkes estimate   =     -73.07472117 Ry
     estimated scf accuracy    <          2.6E-12 Ry

     iteration # 23     ecut=    65.00 Ry     beta=0.10
     Davidson diagonalization with overlap
     ethr =  1.00E-13,  avg # of iterations =  1.1

     total cpu time spent up to now is       94.3 secs

     total energy              =     -73.07472117 Ry
     Harris-Foulkes estimate   =     -73.07472117 Ry
     estimated scf accuracy    <          1.9E-12 Ry

     iteration # 24     ecut=    65.00 Ry     beta=0.10
     Davidson diagonalization with overlap
     ethr =  1.00E-13,  avg # of iterations =  1.0

     total cpu time spent up to now is       97.1 secs

     total energy              =     -73.07472117 Ry
     Harris-Foulkes estimate   =     -73.07472117 Ry
     estimated scf accuracy    <          1.8E-13 Ry

     iteration # 25     ecut=    65.00 Ry     beta=0.10
     Davidson diagonalization with overlap
     ethr =  1.00E-13,  avg # of iterations =  1.0

     total cpu time spent up to now is       99.9 secs

     total energy              =     -73.07472117 Ry
     Harris-Foulkes estimate   =     -73.07472117 Ry
     estimated scf accuracy    <          1.4E-14 Ry

     iteration # 26     ecut=    65.00 Ry     beta=0.10
     Davidson diagonalization with overlap
     ethr =  1.00E-13,  avg # of iterations =  1.0

     total cpu time spent up to now is      102.6 secs

     total energy              =     -73.07472117 Ry
     Harris-Foulkes estimate   =     -73.07472117 Ry
     estimated scf accuracy    <          1.4E-14 Ry

     iteration # 27     ecut=    65.00 Ry     beta=0.10
     Davidson diagonalization with overlap
     ethr =  1.00E-13,  avg # of iterations =  1.0

     total cpu time spent up to now is      105.4 secs

     total energy              =     -73.07472117 Ry
     Harris-Foulkes estimate   =     -73.07472117 Ry
     estimated scf accuracy    <          1.3E-14 Ry

     iteration # 28     ecut=    65.00 Ry     beta=0.10
     Davidson diagonalization with overlap
     ethr =  1.00E-13,  avg # of iterations =  1.0

     total cpu time spent up to now is      108.1 secs

     total energy              =     -73.07472117 Ry
     Harris-Foulkes estimate   =     -73.07472117 Ry
     estimated scf accuracy    <          5.8E-14 Ry

     iteration # 29     ecut=    65.00 Ry     beta=0.10
     Davidson diagonalization with overlap
     ethr =  1.00E-13,  avg # of iterations =  1.0

     total cpu time spent up to now is      110.9 secs

     total energy              =     -73.07472117 Ry
     Harris-Foulkes estimate   =     -73.07472117 Ry
     estimated scf accuracy    <          1.3E-13 Ry

     iteration # 30     ecut=    65.00 Ry     beta=0.10
     Davidson diagonalization with overlap
     ethr =  1.00E-13,  avg # of iterations =  1.0

     total cpu time spent up to now is      113.6 secs

     End of self-consistent calculation

     Number of k-points >= 100: set verbosity='high' to print the bands.

     the Fermi energy is     0.5001 ev

!    total energy              =     -73.07472117 Ry
     Harris-Foulkes estimate   =     -73.07472117 Ry
     estimated scf accuracy    <          8.0E-15 Ry

     The total energy is the sum of the following terms:

     one-electron contribution =    -204.07311153 Ry
     hartree contribution      =     108.65201180 Ry
     xc contribution           =     -30.89534895 Ry
     ewald contribution        =      53.24163777 Ry
     smearing contrib. (-TS)   =       0.00008973 Ry

     convergence has been achieved in  30 iterations

     Forces acting on atoms (Ry/au):

     atom    1 type  1   force =     0.00000000    0.00000000    0.00000000
     atom    2 type  2   force =    -0.00000000   -0.00000000    0.00027972
     atom    3 type  2   force =     0.00000000    0.00000000   -0.00027972

     Total force =     0.000396     Total SCF correction =     0.000000


     entering subroutine stress ...

          total   stress  (Ry/bohr**3)                   (kbar)     P=   -0.06
   0.00000110  -0.00000000   0.00000000          0.16     -0.00      0.00
  -0.00000000   0.00000110  -0.00000000         -0.00      0.16     -0.00
   0.00000000   0.00000000  -0.00000341          0.00      0.00     -0.50


     BFGS Geometry Optimization

     number of scf cycles    =   1
     number of bfgs steps    =   0

     enthalpy new            =     -73.0747211744 Ry

     new trust radius        =       0.0004749668 bohr
     new conv_thr            =            1.0E-14 Ry

     new unit-cell volume =    777.11859 a.u.^3 (   115.15709 Ang^3 )

CELL_PARAMETERS (alat=  5.98149675)
   1.000027525  -0.000000000   0.000000000
  -0.500013762   0.866049241   0.000000000
   0.000000000  -0.000000000   4.192790372

ATOMIC_POSITIONS (crystal)
Mo       0.333333330   0.666666660   0.500000000
S        0.666666660   0.333333330   0.380584377
S        0.666666660   0.333333330   0.619415623



     Writing output data file MoS2.save
     NEW-OLD atomic charge density approx. for the potential

     Check: negative/imaginary core charge=   -0.000002    0.000000
     extrapolated charge   17.99946, renormalised to   18.00000

     total cpu time spent up to now is      116.5 secs

     per-process dynamical memory:    35.4 Mb

     Self-consistent Calculation

     iteration #  1     ecut=    65.00 Ry     beta=0.10
     Davidson diagonalization with overlap
     ethr =  1.00E-06,  avg # of iterations =  1.0

     Threshold (ethr) on eigenvalues was too large:
     Diagonalizing with lowered threshold

     Davidson diagonalization with overlap
     ethr =  2.65E-09,  avg # of iterations =  3.0

     total cpu time spent up to now is      123.5 secs

     total energy              =     -73.07472084 Ry
     Harris-Foulkes estimate   =     -73.08069184 Ry
     estimated scf accuracy    <       0.00000081 Ry

     iteration #  2     ecut=    65.00 Ry     beta=0.10
     Davidson diagonalization with overlap
     ethr =  4.51E-09,  avg # of iterations =  2.0

     total cpu time spent up to now is      127.2 secs

     total energy              =     -73.07472115 Ry
     Harris-Foulkes estimate   =     -73.07472118 Ry
     estimated scf accuracy    <       0.00000028 Ry

     iteration #  3     ecut=    65.00 Ry     beta=0.10
     Davidson diagonalization with overlap
     ethr =  1.54E-09,  avg # of iterations =  1.0

     total cpu time spent up to now is      130.0 secs

     total energy              =     -73.07472114 Ry
     Harris-Foulkes estimate   =     -73.07472115 Ry
     estimated scf accuracy    <       0.00000011 Ry

     iteration #  4     ecut=    65.00 Ry     beta=0.10
     Davidson diagonalization with overlap
     ethr =  6.29E-10,  avg # of iterations =  1.0

     total cpu time spent up to now is      132.8 secs

     total energy              =     -73.07472113 Ry
     Harris-Foulkes estimate   =     -73.07472114 Ry
     estimated scf accuracy    <       0.00000003 Ry

     iteration #  5     ecut=    65.00 Ry     beta=0.10
     Davidson diagonalization with overlap
     ethr =  1.74E-10,  avg # of iterations =  2.7

     total cpu time spent up to now is      136.8 secs

     total energy              =     -73.07472114 Ry
     Harris-Foulkes estimate   =     -73.07472114 Ry
     estimated scf accuracy    <          3.6E-09 Ry

     iteration #  6     ecut=    65.00 Ry     beta=0.10
     Davidson diagonalization with overlap
     ethr =  1.98E-11,  avg # of iterations =  2.9

     total cpu time spent up to now is      141.3 secs

     total energy              =     -73.07472114 Ry
     Harris-Foulkes estimate   =     -73.07472114 Ry
     estimated scf accuracy    <          7.9E-09 Ry

     iteration #  7     ecut=    65.00 Ry     beta=0.10
     Davidson diagonalization with overlap
     ethr =  1.98E-11,  avg # of iterations =  1.0

     total cpu time spent up to now is      144.1 secs

     total energy              =     -73.07472114 Ry
     Harris-Foulkes estimate   =     -73.07472114 Ry
     estimated scf accuracy    <          7.8E-09 Ry

     iteration #  8     ecut=    65.00 Ry     beta=0.10
     Davidson diagonalization with overlap
     ethr =  1.98E-11,  avg # of iterations =  1.0

     total cpu time spent up to now is      146.9 secs

     total energy              =     -73.07472114 Ry
     Harris-Foulkes estimate   =     -73.07472114 Ry
     estimated scf accuracy    <       0.00000001 Ry

     iteration #  9     ecut=    65.00 Ry     beta=0.10
     Davidson diagonalization with overlap
     ethr =  1.98E-11,  avg # of iterations =  2.1

     total cpu time spent up to now is      150.8 secs

     total energy              =     -73.07472114 Ry
     Harris-Foulkes estimate   =     -73.07472114 Ry
     estimated scf accuracy    <          3.5E-10 Ry

     iteration # 10     ecut=    65.00 Ry     beta=0.10
     Davidson diagonalization with overlap
     ethr =  1.95E-12,  avg # of iterations =  2.3

     total cpu time spent up to now is      154.6 secs

     total energy              =     -73.07472114 Ry
     Harris-Foulkes estimate   =     -73.07472114 Ry
     estimated scf accuracy    <          3.9E-10 Ry

     iteration # 11     ecut=    65.00 Ry     beta=0.10
     Davidson diagonalization with overlap
     ethr =  1.95E-12,  avg # of iterations =  1.0

     total cpu time spent up to now is      157.4 secs

     total energy              =     -73.07472114 Ry
     Harris-Foulkes estimate   =     -73.07472114 Ry
     estimated scf accuracy    <          2.6E-11 Ry

     iteration # 12     ecut=    65.00 Ry     beta=0.10
     Davidson diagonalization with overlap
     ethr =  1.47E-13,  avg # of iterations =  2.7

     total cpu time spent up to now is      161.5 secs

     total energy              =     -73.07472114 Ry
     Harris-Foulkes estimate   =     -73.07472114 Ry
     estimated scf accuracy    <          8.4E-12 Ry

     iteration # 13     ecut=    65.00 Ry     beta=0.10
     Davidson diagonalization with overlap
     ethr =  1.00E-13,  avg # of iterations =  1.0

     total cpu time spent up to now is      164.3 secs

     total energy              =     -73.07472114 Ry
     Harris-Foulkes estimate   =     -73.07472114 Ry
     estimated scf accuracy    <          7.3E-12 Ry

     iteration # 14     ecut=    65.00 Ry     beta=0.10
     Davidson diagonalization with overlap
     ethr =  1.00E-13,  avg # of iterations =  1.0

     total cpu time spent up to now is      167.1 secs

     total energy              =     -73.07472114 Ry
     Harris-Foulkes estimate   =     -73.07472114 Ry
     estimated scf accuracy    <          9.2E-13 Ry

     iteration # 15     ecut=    65.00 Ry     beta=0.10
     Davidson diagonalization with overlap
     ethr =  1.00E-13,  avg # of iterations =  1.0

     total cpu time spent up to now is      169.9 secs

     total energy              =     -73.07472114 Ry
     Harris-Foulkes estimate   =     -73.07472114 Ry
     estimated scf accuracy    <          7.3E-13 Ry

     iteration # 16     ecut=    65.00 Ry     beta=0.10
     Davidson diagonalization with overlap
     ethr =  1.00E-13,  avg # of iterations =  1.0

     total cpu time spent up to now is      172.7 secs

     total energy              =     -73.07472114 Ry
     Harris-Foulkes estimate   =     -73.07472114 Ry
     estimated scf accuracy    <          1.9E-13 Ry

     iteration # 17     ecut=    65.00 Ry     beta=0.10
     Davidson diagonalization with overlap
     ethr =  1.00E-13,  avg # of iterations =  1.0

     total cpu time spent up to now is      175.5 secs

     total energy              =     -73.07472114 Ry
     Harris-Foulkes estimate   =     -73.07472114 Ry
     estimated scf accuracy    <          7.7E-14 Ry

     iteration # 18     ecut=    65.00 Ry     beta=0.10
     Davidson diagonalization with overlap
     ethr =  1.00E-13,  avg # of iterations =  1.0

     total cpu time spent up to now is      178.3 secs

     End of self-consistent calculation

     Number of k-points >= 100: set verbosity='high' to print the bands.

     the Fermi energy is     0.4993 ev

!    total energy              =     -73.07472114 Ry
     Harris-Foulkes estimate   =     -73.07472114 Ry
     estimated scf accuracy    <          2.9E-15 Ry

     The total energy is the sum of the following terms:

     one-electron contribution =    -204.05840029 Ry
     hartree contribution      =     108.64456489 Ry
     xc contribution           =     -30.89566392 Ry
     ewald contribution        =      53.23468751 Ry
     smearing contrib. (-TS)   =       0.00009068 Ry

     convergence has been achieved in  18 iterations

     Forces acting on atoms (Ry/au):

     atom    1 type  1   force =    -0.00000000   -0.00000000    0.00000000
     atom    2 type  2   force =    -0.00000000   -0.00000000    0.00008425
     atom    3 type  2   force =    -0.00000000   -0.00000000   -0.00008425

     Total force =     0.000119     Total SCF correction =     0.000000


     entering subroutine stress ...

          total   stress  (Ry/bohr**3)                   (kbar)     P=    0.04
   0.00000139   0.00000000  -0.00000000          0.21      0.00     -0.00
  -0.00000000   0.00000139   0.00000000         -0.00      0.21      0.00
  -0.00000000   0.00000000  -0.00000191         -0.00      0.00     -0.28


     bfgs converged in   2 scf cycles and   1 bfgs steps
     (criteria: energy <  1.0E-04, force <  1.0E-03, cell <  5.0E-01)

     End of BFGS Geometry Optimization

     Final enthalpy =     -73.0747211383 Ry
Begin final coordinates
     new unit-cell volume =    777.11859 a.u.^3 (   115.15709 Ang^3 )

CELL_PARAMETERS (alat=  5.98149675)
   1.000027525  -0.000000000   0.000000000
  -0.500013762   0.866049241   0.000000000
   0.000000000  -0.000000000   4.192790372

ATOMIC_POSITIONS (crystal)
Mo       0.333333330   0.666666660   0.500000000
S        0.666666660   0.333333330   0.380584377
S        0.666666660   0.333333330   0.619415623
End final coordinates



     A final scf calculation at the relaxed structure.
     The G-vectors are recalculated for the final unit cell
     Results may differ from those at the preceding step.
 
     Parallelization info
     --------------------
     sticks:   dense  smooth     PW     G-vecs:    dense   smooth      PW
     Min          42      20      5                 5286     1708     261
     Max          43      21      6                 5305     1735     284
     Sum        1369     649    187               169387    55137    8763
 


     bravais-lattice index     =            4
     lattice parameter (alat)  =       5.9815  a.u.
     unit-cell volume          =     777.1186 (a.u.)^3
     number of atoms/cell      =            3
     number of atomic types    =            2
     number of electrons       =        18.00
     number of Kohn-Sham states=           13
     kinetic-energy cutoff     =      65.0000  Ry
     charge density cutoff     =     550.0000  Ry
     convergence threshold     =      1.0E-14
     mixing beta               =       0.1000
     number of iterations used =            8  plain     mixing
     Exchange-correlation      = LDA ( 1  1  0  0 0 0)

     celldm(1)=   5.981497  celldm(2)=   0.000000  celldm(3)=   4.193148
     celldm(4)=   0.000000  celldm(5)=   0.000000  celldm(6)=   0.000000

     crystal axes: (cart. coord. in units of alat)
               a(1) = (   1.000028  -0.000000   0.000000 )  
               a(2) = (  -0.500014   0.866049   0.000000 )  
               a(3) = (   0.000000  -0.000000   4.192790 )  

     reciprocal axes: (cart. coord. in units 2 pi/alat)
               b(1) = (  0.999972  0.577334 -0.000000 )  
               b(2) = (  0.000000  1.154669  0.000000 )  
               b(3) = (  0.000000  0.000000  0.238505 )  


     PseudoPot. # 1 for Mo read from file:
     ./Mo.pz-n-nc.UPF
     MD5 check sum: 9351746152ce7c48ffce095ea233aab8
     Pseudo is Norm-conserving + core correction, Zval =  6.0
     Generated using "atomic" code by A. Dal Corso  v.5.1.2
     Using radial grid of 1229 points,  2 beta functions with: 
                l(1) =   1
                l(2) =   2

     PseudoPot. # 2 for  S read from file:
     ./S.pz-n-nc.UPF
     MD5 check sum: 6d5ad2fd30125d3fe3dfa4e9fadc32f8
     Pseudo is Norm-conserving + core correction, Zval =  6.0
     Generated using "atomic" code by A. Dal Corso  v.5.1.2
     Using radial grid of 1151 points,  2 beta functions with: 
                l(1) =   0
                l(2) =   1

     atomic species   valence    mass     pseudopotential
        Mo             6.00    95.94000     Mo( 1.00)
        S              6.00    32.06500      S( 1.00)

     12 Sym. Ops. (no inversion) found



   Cartesian axes

     site n.     atom                  positions (alat units)
         1           Mo  tau(   1) = (   0.0000000   0.5773662   2.0963952  )
         2           S   tau(   2) = (   0.5000138   0.2886831   1.5957105  )
         3           S   tau(   3) = (   0.5000138   0.2886831   2.5970799  )

     number of k points=   154  Methfessel-Paxton smearing, width (Ry)=  0.0100

     Number of k-points >= 100: set verbosity='high' to print them.

     Dense  grid:   169387 G-vectors     FFT dimensions: (  45,  45, 192)

     Smooth grid:    55137 G-vectors     FFT dimensions: (  32,  32, 135)

     Largest allocated arrays     est. size (Mb)     dimensions
        Kohn-Sham Wavefunctions         0.05 Mb     (     229,   13)
        NL pseudopotentials             0.06 Mb     (     229,   16)
        Each V/rho on FFT grid          0.19 Mb     (   12150)
        Each G-vector array             0.04 Mb     (    5297)
        G-vector shells                 0.02 Mb     (    2568)
     Largest temporary arrays     est. size (Mb)     dimensions
        Auxiliary wavefunctions         0.18 Mb     (     229,   52)
        Each subspace H/S matrix        0.00 Mb     (      13,   13)
        Each <psi_i|beta_j> matrix      0.00 Mb     (      16,   13)
        Arrays for rho mixing           1.48 Mb     (   12150,    8)

     Check: negative/imaginary core charge=   -0.000002    0.000000

     Initial potential from superposition of free atoms

     starting charge   17.99896, renormalised to   18.00000

     negative rho (up, down):  1.305E-08 0.000E+00
     Starting wfc are   17 randomized atomic wfcs

     Writing output data file MoS2.save

     total cpu time spent up to now is      182.0 secs

     per-process dynamical memory:    40.8 Mb

     Self-consistent Calculation

     iteration #  1     ecut=    65.00 Ry     beta=0.10
     Davidson diagonalization with overlap
     ethr =  1.00E-06,  avg # of iterations = 10.7

     total cpu time spent up to now is      196.2 secs

     total energy              =     -73.10777803 Ry
     Harris-Foulkes estimate   =     -73.17287564 Ry
     estimated scf accuracy    <       0.39813940 Ry

     iteration #  2     ecut=    65.00 Ry     beta=0.10
     Davidson diagonalization with overlap
     ethr =  2.21E-03,  avg # of iterations =  1.0

     total cpu time spent up to now is      199.0 secs

     total energy              =     -73.07596215 Ry
     Harris-Foulkes estimate   =     -73.11913763 Ry
     estimated scf accuracy    <       0.14988880 Ry

     iteration #  3     ecut=    65.00 Ry     beta=0.10
     Davidson diagonalization with overlap
     ethr =  8.33E-04,  avg # of iterations =  1.0

     total cpu time spent up to now is      201.8 secs

     total energy              =     -73.06537629 Ry
     Harris-Foulkes estimate   =     -73.08806303 Ry
     estimated scf accuracy    <       0.04348909 Ry

     iteration #  4     ecut=    65.00 Ry     beta=0.10
     Davidson diagonalization with overlap
     ethr =  2.42E-04,  avg # of iterations =  2.9

     total cpu time spent up to now is      206.4 secs

     total energy              =     -73.07302376 Ry
     Harris-Foulkes estimate   =     -73.07715639 Ry
     estimated scf accuracy    <       0.01349947 Ry

     iteration #  5     ecut=    65.00 Ry     beta=0.10
     Davidson diagonalization with overlap
     ethr =  7.50E-05,  avg # of iterations =  2.0

     total cpu time spent up to now is      211.0 secs

     total energy              =     -73.07298623 Ry
     Harris-Foulkes estimate   =     -73.07604661 Ry
     estimated scf accuracy    <       0.00564370 Ry

     iteration #  6     ecut=    65.00 Ry     beta=0.10
     Davidson diagonalization with overlap
     ethr =  3.14E-05,  avg # of iterations =  2.5

     total cpu time spent up to now is      215.5 secs

     total energy              =     -73.07240471 Ry
     Harris-Foulkes estimate   =     -73.07726600 Ry
     estimated scf accuracy    <       0.01572912 Ry

     iteration #  7     ecut=    65.00 Ry     beta=0.10
     Davidson diagonalization with overlap
     ethr =  3.14E-05,  avg # of iterations =  2.0

     total cpu time spent up to now is      219.1 secs

     total energy              =     -73.07472480 Ry
     Harris-Foulkes estimate   =     -73.07473624 Ry
     estimated scf accuracy    <       0.00017126 Ry

     iteration #  8     ecut=    65.00 Ry     beta=0.10
     Davidson diagonalization with overlap
     ethr =  9.51E-07,  avg # of iterations =  3.2

     total cpu time spent up to now is      224.0 secs

     total energy              =     -73.07471074 Ry
     Harris-Foulkes estimate   =     -73.07476840 Ry
     estimated scf accuracy    <       0.00014708 Ry

     iteration #  9     ecut=    65.00 Ry     beta=0.10
     Davidson diagonalization with overlap
     ethr =  8.17E-07,  avg # of iterations =  1.5

     total cpu time spent up to now is      227.0 secs

     total energy              =     -73.07470518 Ry
     Harris-Foulkes estimate   =     -73.07474220 Ry
     estimated scf accuracy    <       0.00009992 Ry

     iteration # 10     ecut=    65.00 Ry     beta=0.10
     Davidson diagonalization with overlap
     ethr =  5.55E-07,  avg # of iterations =  2.0

     total cpu time spent up to now is      230.7 secs

     total energy              =     -73.07472160 Ry
     Harris-Foulkes estimate   =     -73.07472183 Ry
     estimated scf accuracy    <       0.00000250 Ry

     iteration # 11     ecut=    65.00 Ry     beta=0.10
     Davidson diagonalization with overlap
     ethr =  1.39E-08,  avg # of iterations =  3.0

     total cpu time spent up to now is      235.6 secs

     total energy              =     -73.07472094 Ry
     Harris-Foulkes estimate   =     -73.07472279 Ry
     estimated scf accuracy    <       0.00000378 Ry

     iteration # 12     ecut=    65.00 Ry     beta=0.10
     Davidson diagonalization with overlap
     ethr =  1.39E-08,  avg # of iterations =  2.0

     total cpu time spent up to now is      239.1 secs

     total energy              =     -73.07472166 Ry
     Harris-Foulkes estimate   =     -73.07472194 Ry
     estimated scf accuracy    <       0.00000197 Ry

     iteration # 13     ecut=    65.00 Ry     beta=0.10
     Davidson diagonalization with overlap
     ethr =  1.09E-08,  avg # of iterations =  1.0

     total cpu time spent up to now is      241.9 secs

     total energy              =     -73.07472164 Ry
     Harris-Foulkes estimate   =     -73.07472172 Ry
     estimated scf accuracy    <       0.00000093 Ry

     iteration # 14     ecut=    65.00 Ry     beta=0.10
     Davidson diagonalization with overlap
     ethr =  5.15E-09,  avg # of iterations =  1.0

     total cpu time spent up to now is      244.8 secs

     total energy              =     -73.07472156 Ry
     Harris-Foulkes estimate   =     -73.07472166 Ry
     estimated scf accuracy    <       0.00000072 Ry

     iteration # 15     ecut=    65.00 Ry     beta=0.10
     Davidson diagonalization with overlap
     ethr =  4.01E-09,  avg # of iterations =  1.0

     total cpu time spent up to now is      247.6 secs

     total energy              =     -73.07472161 Ry
     Harris-Foulkes estimate   =     -73.07472157 Ry
     estimated scf accuracy    <       0.00000036 Ry

     iteration # 16     ecut=    65.00 Ry     beta=0.10
     Davidson diagonalization with overlap
     ethr =  2.02E-09,  avg # of iterations =  1.0

     total cpu time spent up to now is      250.4 secs

     total energy              =     -73.07472102 Ry
     Harris-Foulkes estimate   =     -73.07472162 Ry
     estimated scf accuracy    <       0.00000051 Ry

     iteration # 17     ecut=    65.00 Ry     beta=0.10
     Davidson diagonalization with overlap
     ethr =  2.02E-09,  avg # of iterations =  2.1

     total cpu time spent up to now is      254.5 secs

     total energy              =     -73.07472110 Ry
     Harris-Foulkes estimate   =     -73.07472117 Ry
     estimated scf accuracy    <       0.00000014 Ry

     iteration # 18     ecut=    65.00 Ry     beta=0.10
     Davidson diagonalization with overlap
     ethr =  7.64E-10,  avg # of iterations =  2.0

     total cpu time spent up to now is      258.3 secs

     total energy              =     -73.07472112 Ry
     Harris-Foulkes estimate   =     -73.07472113 Ry
     estimated scf accuracy    <          7.3E-09 Ry

     iteration # 19     ecut=    65.00 Ry     beta=0.10
     Davidson diagonalization with overlap
     ethr =  4.07E-11,  avg # of iterations =  3.0

     total cpu time spent up to now is      263.1 secs

     total energy              =     -73.07472113 Ry
     Harris-Foulkes estimate   =     -73.07472113 Ry
     estimated scf accuracy    <          2.9E-09 Ry

     iteration # 20     ecut=    65.00 Ry     beta=0.10
     Davidson diagonalization with overlap
     ethr =  1.59E-11,  avg # of iterations =  2.0

     total cpu time spent up to now is      267.1 secs

     total energy              =     -73.07472113 Ry
     Harris-Foulkes estimate   =     -73.07472113 Ry
     estimated scf accuracy    <          1.9E-09 Ry

     iteration # 21     ecut=    65.00 Ry     beta=0.10
     Davidson diagonalization with overlap
     ethr =  1.07E-11,  avg # of iterations =  2.0

     total cpu time spent up to now is      270.6 secs

     total energy              =     -73.07472113 Ry
     Harris-Foulkes estimate   =     -73.07472113 Ry
     estimated scf accuracy    <          1.0E-09 Ry

     iteration # 22     ecut=    65.00 Ry     beta=0.10
     Davidson diagonalization with overlap
     ethr =  5.57E-12,  avg # of iterations =  2.2

     total cpu time spent up to now is      274.7 secs

     total energy              =     -73.07472113 Ry
     Harris-Foulkes estimate   =     -73.07472113 Ry
     estimated scf accuracy    <          2.3E-10 Ry

     iteration # 23     ecut=    65.00 Ry     beta=0.10
     Davidson diagonalization with overlap
     ethr =  1.27E-12,  avg # of iterations =  2.0

     total cpu time spent up to now is      278.7 secs

     total energy              =     -73.07472113 Ry
     Harris-Foulkes estimate   =     -73.07472113 Ry
     estimated scf accuracy    <          1.9E-10 Ry

     iteration # 24     ecut=    65.00 Ry     beta=0.10
     Davidson diagonalization with overlap
     ethr =  1.03E-12,  avg # of iterations =  2.0

     total cpu time spent up to now is      282.2 secs

     total energy              =     -73.07472113 Ry
     Harris-Foulkes estimate   =     -73.07472113 Ry
     estimated scf accuracy    <          6.3E-11 Ry

     iteration # 25     ecut=    65.00 Ry     beta=0.10
     Davidson diagonalization with overlap
     ethr =  3.50E-13,  avg # of iterations =  3.0

     total cpu time spent up to now is      287.0 secs

     total energy              =     -73.07472113 Ry
     Harris-Foulkes estimate   =     -73.07472113 Ry
     estimated scf accuracy    <          6.6E-11 Ry

     iteration # 26     ecut=    65.00 Ry     beta=0.10
     Davidson diagonalization with overlap
     ethr =  3.50E-13,  avg # of iterations =  2.0

     total cpu time spent up to now is      290.5 secs

     total energy              =     -73.07472113 Ry
     Harris-Foulkes estimate   =     -73.07472113 Ry
     estimated scf accuracy    <          2.8E-11 Ry

     iteration # 27     ecut=    65.00 Ry     beta=0.10
     Davidson diagonalization with overlap
     ethr =  1.54E-13,  avg # of iterations =  2.3

     total cpu time spent up to now is      294.6 secs

     total energy              =     -73.07472113 Ry
     Harris-Foulkes estimate   =     -73.07472113 Ry
     estimated scf accuracy    <          1.7E-13 Ry

     iteration # 28     ecut=    65.00 Ry     beta=0.10
     Davidson diagonalization with overlap
     ethr =  1.00E-13,  avg # of iterations =  1.0

     total cpu time spent up to now is      297.4 secs

     total energy              =     -73.07472113 Ry
     Harris-Foulkes estimate   =     -73.07472113 Ry
     estimated scf accuracy    <          6.0E-14 Ry

     iteration # 29     ecut=    65.00 Ry     beta=0.10
     Davidson diagonalization with overlap
     ethr =  1.00E-13,  avg # of iterations =  1.0

     total cpu time spent up to now is      300.2 secs

     total energy              =     -73.07472113 Ry
     Harris-Foulkes estimate   =     -73.07472113 Ry
     estimated scf accuracy    <          1.9E-14 Ry

     iteration # 30     ecut=    65.00 Ry     beta=0.10
     Davidson diagonalization with overlap
     ethr =  1.00E-13,  avg # of iterations =  1.0

     total cpu time spent up to now is      303.0 secs

     End of self-consistent calculation

     Number of k-points >= 100: set verbosity='high' to print the bands.

     the Fermi energy is     0.4993 ev

!    total energy              =     -73.07472113 Ry
     Harris-Foulkes estimate   =     -73.07472113 Ry
     estimated scf accuracy    <          5.8E-15 Ry

     The total energy is the sum of the following terms:

     one-electron contribution =    -204.05840034 Ry
     hartree contribution      =     108.64456496 Ry
     xc contribution           =     -30.89566394 Ry
     ewald contribution        =      53.23468751 Ry
     smearing contrib. (-TS)   =       0.00009068 Ry

     convergence has been achieved in  30 iterations

     Forces acting on atoms (Ry/au):

     atom    1 type  1   force =    -0.00000000   -0.00000000    0.00000000
     atom    2 type  2   force =    -0.00000000   -0.00000000    0.00008427
     atom    3 type  2   force =    -0.00000000   -0.00000000   -0.00008427

     Total force =     0.000119     Total SCF correction =     0.000000


     entering subroutine stress ...

          total   stress  (Ry/bohr**3)                   (kbar)     P=    0.04
   0.00000139   0.00000000  -0.00000000          0.21      0.00     -0.00
   0.00000000   0.00000139   0.00000000          0.00      0.21      0.00
  -0.00000000   0.00000000  -0.00000191         -0.00      0.00     -0.28


     Writing output data file MoS2.save
 
     init_run     :      3.68s CPU      3.74s WALL (       2 calls)
     electrons    :    284.60s CPU    294.14s WALL (       3 calls)
     update_pot   :      0.58s CPU      0.61s WALL (       1 calls)
     forces       :      1.11s CPU      1.13s WALL (       3 calls)
     stress       :      2.13s CPU      2.14s WALL (       3 calls)

     Called by init_run:
     wfcinit      :      2.74s CPU      2.78s WALL (       2 calls)
     potinit      :      0.19s CPU      0.19s WALL (       2 calls)

     Called by electrons:
     c_bands      :    261.08s CPU    269.99s WALL (      79 calls)
     sum_band     :     23.01s CPU     23.52s WALL (      79 calls)
     v_of_rho     :      0.13s CPU      0.13s WALL (      81 calls)
     mix_rho      :      0.18s CPU      0.19s WALL (      79 calls)

     Called by c_bands:
     init_us_2    :      0.24s CPU      1.45s WALL (   25564 calls)
     cegterg      :    255.75s CPU    261.72s WALL (   12166 calls)

     Called by sum_band:

     Called by *egterg:
     h_psi        :    111.78s CPU    108.66s WALL (   36127 calls)
     g_psi        :      0.39s CPU      0.57s WALL (   23653 calls)
     cdiaghg      :    108.96s CPU    108.61s WALL (   35511 calls)

     Called by h_psi:
     add_vuspsi   :      0.33s CPU      1.28s WALL (   36127 calls)

     General routines
     calbec       :      1.55s CPU      3.53s WALL (   38437 calls)
     fft          :      0.55s CPU      0.48s WALL (     583 calls)
     ffts         :      0.04s CPU      0.07s WALL (     160 calls)
     fftw         :    130.64s CPU    118.13s WALL (  925092 calls)
     interpolate  :      0.18s CPU      0.20s WALL (     160 calls)
     davcio       :      0.00s CPU      0.03s WALL (     308 calls)
 
     Parallel routines
     fft_scatter  :    123.14s CPU     82.14s WALL (  925835 calls)
 
     PWSCF        :  4m53.23s CPU     5m 4.57s WALL

 
   This run was terminated on:  12:13: 9  15May2020            

=------------------------------------------------------------------------------=
   JOB DONE.
=------------------------------------------------------------------------------=
