
     Program PWSCF v.5.4.0 starts on 27Jun2020 at 18:25:41 

     This program is part of the open-source Quantum ESPRESSO suite
     for quantum simulation of materials; please cite
         "P. Giannozzi et al., J. Phys.:Condens. Matter 21 395502 (2009);
          URL http://www.quantum-espresso.org", 
     in publications or presentations arising from this work. More details at
     http://www.quantum-espresso.org/quote

     Parallel version (MPI), running on    32 processors
     R & G space division:  proc/nbgrp/npool/nimage =      32
     Waiting for input...
     Reading input from standard input

     Current dimensions of program PWSCF are:
     Max number of different atomic species (ntypx) = 10
     Max number of k-points (npk) =  40000
     Max angular momentum in pseudopotentials (lmaxx) =  3
     Message from routine iosys:
     pot_extrapolation='second_order' not available, using 'atomic'
     Message from routine iosys:
     wfc_extrapolation='second_order' not available, using 'atomic'
               file B.pbe-mt_fhi.UPF: wavefunction(s)  4f renormalized
               file N.pbe-mt_fhi.UPF: wavefunction(s)  4f renormalized
               file Li.pbe-mt_fhi.UPF: wavefunction(s)  2p 4f renormalized

     Subspace diagonalization in iterative solution of the eigenvalue problem:
     one sub-group per band group will be used
     scalapack distributed-memory algorithm (size of sub-group:  4*  4 procs)

     Message from routine setup:
     no reason to have ecutrho>4*ecutwfc
 
     Parallelization info
     --------------------
     sticks:   dense  smooth     PW     G-vecs:    dense   smooth      PW
     Min          93      37     10                14303     3591     536
     Max          94      38     12                14318     3641     546
     Sum        2989    1189    337               457875   115825   17273
 


     bravais-lattice index     =            4
     lattice parameter (alat)  =       8.1636  a.u.
     unit-cell volume          =    1636.0121 (a.u.)^3
     number of atoms/cell      =            7
     number of atomic types    =            3
     number of electrons       =        25.00
     number of Kohn-Sham states=           17
     kinetic-energy cutoff     =      65.0000  Ry
     charge density cutoff     =     650.0000  Ry
     convergence threshold     =      1.0E-08
     mixing beta               =       0.7000
     number of iterations used =            8  plain     mixing
     Exchange-correlation      = PBE ( 1  4  3  4 0 0)
     nstep                     =         2800


     celldm(1)=   8.163620  celldm(2)=   0.000000  celldm(3)=   3.472222
     celldm(4)=   0.000000  celldm(5)=   0.000000  celldm(6)=   0.000000

     crystal axes: (cart. coord. in units of alat)
               a(1) = (   1.000000   0.000000   0.000000 )  
               a(2) = (  -0.500000   0.866025   0.000000 )  
               a(3) = (   0.000000   0.000000   3.472222 )  

     reciprocal axes: (cart. coord. in units 2 pi/alat)
               b(1) = (  1.000000  0.577350  0.000000 )  
               b(2) = (  0.000000  1.154701  0.000000 )  
               b(3) = (  0.000000  0.000000  0.288000 )  


     PseudoPot. # 1 for  B read from file:
     ./B.pbe-mt_fhi.UPF
     MD5 check sum: b0973759d6fe2b7794663d097043aaa9
     Pseudo is Norm-conserving + core correction, Zval =  3.0
     Generated using FHI98PP, converted with fhi2upf.x v.5.0.2
     Using radial grid of  453 points,  3 beta functions with: 
                l(1) =   0
                l(2) =   1
                l(3) =   3

     PseudoPot. # 2 for  N read from file:
     ./N.pbe-mt_fhi.UPF
     MD5 check sum: 7f83aac2c813a0e1096af144166c4722
     Pseudo is Norm-conserving, Zval =  5.0
     Generated using FHI98PP, converted with fhi2upf.x v.5.0.2
     Using radial grid of  467 points,  3 beta functions with: 
                l(1) =   0
                l(2) =   1
                l(3) =   3

     PseudoPot. # 3 for Li read from file:
     ./Li.pbe-mt_fhi.UPF
     MD5 check sum: 3419f5616d131090147e867976aae79b
     Pseudo is Norm-conserving + core correction, Zval =  1.0
     Generated using FHI98PP, converted with fhi2upf.x v.5.0.2
     Using radial grid of  433 points,  3 beta functions with: 
                l(1) =   0
                l(2) =   1
                l(3) =   3

     atomic species   valence    mass     pseudopotential
        B              3.00    10.81000      B( 1.00)
        N              5.00    14.01000      N( 1.00)
        Li             1.00     6.94000     Li( 1.00)

      3 Sym. Ops. (no inversion) found



   Cartesian axes

     site n.     atom                  positions (alat units)
         1           B   tau(   1) = (  -0.3333360   0.5773484   0.0000000  )
         2           N   tau(   2) = (  -0.1666680   0.2886742   0.0000000  )
         3           B   tau(   3) = (   0.1666652   0.2886742   0.0000000  )
         4           N   tau(   4) = (   0.3333332   0.0000000   0.0000000  )
         5           B   tau(   5) = (   0.6666664   0.0000000   0.0000000  )
         6           N   tau(   6) = (   0.3333332   0.5773484   0.0000000  )
         7           Li  tau(   7) = (  -0.0000014   0.5773484   0.3958332  )

     number of k points=    68  Methfessel-Paxton smearing, width (Ry)=  0.0001
                       cart. coord. in units 2pi/alat
        k(    1) = (   0.0000000   0.0000000   0.0000000), wk =   0.0050000
        k(    2) = (   0.0000000   0.0577350   0.0000000), wk =   0.0300000
        k(    3) = (   0.0000000   0.1154701   0.0000000), wk =   0.0300000
        k(    4) = (   0.0000000   0.1732051   0.0000000), wk =   0.0300000
        k(    5) = (   0.0000000   0.2309401   0.0000000), wk =   0.0300000
        k(    6) = (   0.0000000   0.2886751   0.0000000), wk =   0.0300000
        k(    7) = (   0.0000000   0.3464102   0.0000000), wk =   0.0300000
        k(    8) = (   0.0000000   0.4041452   0.0000000), wk =   0.0300000
        k(    9) = (   0.0000000   0.4618802   0.0000000), wk =   0.0300000
        k(   10) = (   0.0000000   0.5196152   0.0000000), wk =   0.0300000
        k(   11) = (   0.0000000  -0.5773503   0.0000000), wk =   0.0150000
        k(   12) = (   0.0500000   0.0866025   0.0000000), wk =   0.0300000
        k(   13) = (   0.0500000   0.1443376   0.0000000), wk =   0.0300000
        k(   14) = (   0.0500000   0.2020726   0.0000000), wk =   0.0300000
        k(   15) = (   0.0500000   0.2598076   0.0000000), wk =   0.0300000
        k(   16) = (   0.0500000   0.3175426   0.0000000), wk =   0.0300000
        k(   17) = (   0.0500000   0.3752777   0.0000000), wk =   0.0300000
        k(   18) = (   0.0500000   0.4330127   0.0000000), wk =   0.0300000
        k(   19) = (   0.0500000   0.4907477   0.0000000), wk =   0.0300000
        k(   20) = (   0.0500000   0.5484828   0.0000000), wk =   0.0300000
        k(   21) = (   0.1000000   0.1732051   0.0000000), wk =   0.0300000
        k(   22) = (   0.1000000   0.2309401   0.0000000), wk =   0.0300000
        k(   23) = (   0.1000000   0.2886751   0.0000000), wk =   0.0300000
        k(   24) = (   0.1000000   0.3464102   0.0000000), wk =   0.0300000
        k(   25) = (   0.1000000   0.4041452   0.0000000), wk =   0.0300000
        k(   26) = (   0.1000000   0.4618802   0.0000000), wk =   0.0300000
        k(   27) = (   0.1000000   0.5196152   0.0000000), wk =   0.0300000
        k(   28) = (   0.1000000   0.5773503   0.0000000), wk =   0.0300000
        k(   29) = (   0.1500000   0.2598076   0.0000000), wk =   0.0300000
        k(   30) = (   0.1500000   0.3175426   0.0000000), wk =   0.0300000
        k(   31) = (   0.1500000   0.3752777   0.0000000), wk =   0.0300000
        k(   32) = (   0.1500000   0.4330127   0.0000000), wk =   0.0300000
        k(   33) = (   0.1500000   0.4907477   0.0000000), wk =   0.0300000
        k(   34) = (   0.1500000   0.5484828   0.0000000), wk =   0.0300000
        k(   35) = (   0.2000000   0.3464102   0.0000000), wk =   0.0300000
        k(   36) = (   0.2000000   0.4041452   0.0000000), wk =   0.0300000
        k(   37) = (   0.2000000   0.4618802   0.0000000), wk =   0.0300000
        k(   38) = (   0.2000000   0.5196152   0.0000000), wk =   0.0300000
        k(   39) = (   0.2000000   0.5773503   0.0000000), wk =   0.0300000
        k(   40) = (   0.2500000   0.4330127   0.0000000), wk =   0.0300000
        k(   41) = (   0.2500000   0.4907477   0.0000000), wk =   0.0300000
        k(   42) = (   0.2500000   0.5484828   0.0000000), wk =   0.0300000
        k(   43) = (   0.3000000   0.5196152   0.0000000), wk =   0.0300000
        k(   44) = (   0.3000000   0.5773503   0.0000000), wk =   0.0300000
        k(   45) = (   0.0500000  -0.1443376   0.0000000), wk =   0.0300000
        k(   46) = (   0.0500000  -0.2020726   0.0000000), wk =   0.0300000
        k(   47) = (   0.0500000  -0.2598076   0.0000000), wk =   0.0300000
        k(   48) = (   0.0500000  -0.3175426   0.0000000), wk =   0.0300000
        k(   49) = (   0.0500000  -0.3752777   0.0000000), wk =   0.0300000
        k(   50) = (   0.0500000  -0.4330127   0.0000000), wk =   0.0300000
        k(   51) = (   0.0500000  -0.4907477   0.0000000), wk =   0.0300000
        k(   52) = (   0.0500000  -0.5484828   0.0000000), wk =   0.0300000
        k(   53) = (   0.1000000  -0.2309401   0.0000000), wk =   0.0300000
        k(   54) = (   0.1000000  -0.2886751   0.0000000), wk =   0.0300000
        k(   55) = (   0.1000000  -0.3464102   0.0000000), wk =   0.0300000
        k(   56) = (   0.1000000  -0.4041452   0.0000000), wk =   0.0300000
        k(   57) = (   0.1000000  -0.4618802   0.0000000), wk =   0.0300000
        k(   58) = (   0.1000000  -0.5196152   0.0000000), wk =   0.0300000
        k(   59) = (   0.1500000  -0.3175426   0.0000000), wk =   0.0300000
        k(   60) = (   0.1500000  -0.3752777   0.0000000), wk =   0.0300000
        k(   61) = (   0.1500000  -0.4330127   0.0000000), wk =   0.0300000
        k(   62) = (   0.1500000  -0.4907477   0.0000000), wk =   0.0300000
        k(   63) = (   0.1500000  -0.5484828   0.0000000), wk =   0.0300000
        k(   64) = (   0.2000000  -0.4041452   0.0000000), wk =   0.0300000
        k(   65) = (   0.2000000  -0.4618802   0.0000000), wk =   0.0300000
        k(   66) = (   0.2000000  -0.5196152   0.0000000), wk =   0.0300000
        k(   67) = (   0.2500000  -0.4907477   0.0000000), wk =   0.0300000
        k(   68) = (   0.2500000  -0.5484828   0.0000000), wk =   0.0300000

     Dense  grid:   457875 G-vectors     FFT dimensions: (  72,  72, 240)

     Smooth grid:   115825 G-vectors     FFT dimensions: (  45,  45, 150)

     Largest allocated arrays     est. size (Mb)     dimensions
        Kohn-Sham Wavefunctions         0.13 Mb     (     484,   17)
        NL pseudopotentials             0.57 Mb     (     484,   77)
        Each V/rho on FFT grid          0.63 Mb     (   41472)
        Each G-vector array             0.11 Mb     (   14305)
        G-vector shells                 0.05 Mb     (    6272)
     Largest temporary arrays     est. size (Mb)     dimensions
        Auxiliary wavefunctions         0.50 Mb     (     484,   68)
        Each subspace H/S matrix        0.00 Mb     (      17,   17)
        Each <psi_i|beta_j> matrix      0.02 Mb     (      77,   17)
        Arrays for rho mixing           5.06 Mb     (   41472,    8)

     Initial potential from superposition of free atoms
     Check: negative starting charge=   -0.001192

     starting charge   24.99515, renormalised to   25.00000

     negative rho (up, down):  1.193E-03 0.000E+00
     Starting wfc are  112 randomized atomic wfcs

     total cpu time spent up to now is        6.8 secs

     per-process dynamical memory:    41.2 Mb

     Self-consistent Calculation

     iteration #  1     ecut=    65.00 Ry     beta=0.70
     Davidson diagonalization with overlap
     ethr =  1.00E-02,  avg # of iterations =  2.3

     negative rho (up, down):  3.500E-04 0.000E+00

     total cpu time spent up to now is       10.7 secs

     total energy              =     -80.61818801 Ry
     Harris-Foulkes estimate   =     -81.60746818 Ry
     estimated scf accuracy    <       1.38489567 Ry

     iteration #  2     ecut=    65.00 Ry     beta=0.70
     Davidson diagonalization with overlap
     ethr =  5.54E-03,  avg # of iterations =  4.9

     negative rho (up, down):  3.232E-05 0.000E+00

     total cpu time spent up to now is       16.3 secs

     total energy              =     -80.66098660 Ry
     Harris-Foulkes estimate   =     -81.61876900 Ry
     estimated scf accuracy    <       2.14090773 Ry

     iteration #  3     ecut=    65.00 Ry     beta=0.70
     Davidson diagonalization with overlap
     ethr =  5.54E-03,  avg # of iterations =  3.9

     negative rho (up, down):  1.655E-06 0.000E+00

     total cpu time spent up to now is       20.7 secs

     total energy              =     -81.07209038 Ry
     Harris-Foulkes estimate   =     -81.20767528 Ry
     estimated scf accuracy    <       0.36968615 Ry

     iteration #  4     ecut=    65.00 Ry     beta=0.70
     Davidson diagonalization with overlap
     ethr =  1.48E-03,  avg # of iterations =  2.6

     total cpu time spent up to now is       24.4 secs

     total energy              =     -81.15345014 Ry
     Harris-Foulkes estimate   =     -81.17650816 Ry
     estimated scf accuracy    <       0.11788848 Ry

     iteration #  5     ecut=    65.00 Ry     beta=0.70
     Davidson diagonalization with overlap
     ethr =  4.72E-04,  avg # of iterations =  1.4

     total cpu time spent up to now is       27.1 secs

     total energy              =     -81.16079205 Ry
     Harris-Foulkes estimate   =     -81.16225563 Ry
     estimated scf accuracy    <       0.00676167 Ry

     iteration #  6     ecut=    65.00 Ry     beta=0.70
     Davidson diagonalization with overlap
     ethr =  2.70E-05,  avg # of iterations =  4.1

     total cpu time spent up to now is       31.6 secs

     total energy              =     -81.16122524 Ry
     Harris-Foulkes estimate   =     -81.16165725 Ry
     estimated scf accuracy    <       0.00193735 Ry

     iteration #  7     ecut=    65.00 Ry     beta=0.70
     Davidson diagonalization with overlap
     ethr =  7.75E-06,  avg # of iterations =  2.6

     total cpu time spent up to now is       34.9 secs

     total energy              =     -81.16160645 Ry
     Harris-Foulkes estimate   =     -81.16183286 Ry
     estimated scf accuracy    <       0.00128355 Ry

     iteration #  8     ecut=    65.00 Ry     beta=0.70
     Davidson diagonalization with overlap
     ethr =  5.13E-06,  avg # of iterations =  1.0

     total cpu time spent up to now is       37.5 secs

     total energy              =     -81.16162654 Ry
     Harris-Foulkes estimate   =     -81.16167817 Ry
     estimated scf accuracy    <       0.00025525 Ry

     iteration #  9     ecut=    65.00 Ry     beta=0.70
     Davidson diagonalization with overlap
     ethr =  1.02E-06,  avg # of iterations =  1.3

     total cpu time spent up to now is       40.3 secs

     total energy              =     -81.16163206 Ry
     Harris-Foulkes estimate   =     -81.16164853 Ry
     estimated scf accuracy    <       0.00035750 Ry

     iteration # 10     ecut=    65.00 Ry     beta=0.70
     Davidson diagonalization with overlap
     ethr =  1.02E-06,  avg # of iterations =  1.0

     total cpu time spent up to now is       43.0 secs

     total energy              =     -81.16164110 Ry
     Harris-Foulkes estimate   =     -81.16164584 Ry
     estimated scf accuracy    <       0.00009909 Ry

     iteration # 11     ecut=    65.00 Ry     beta=0.70
     Davidson diagonalization with overlap
     ethr =  3.96E-07,  avg # of iterations =  1.0

     total cpu time spent up to now is       45.6 secs

     total energy              =     -81.16164267 Ry
     Harris-Foulkes estimate   =     -81.16164355 Ry
     estimated scf accuracy    <       0.00001291 Ry

     iteration # 12     ecut=    65.00 Ry     beta=0.70
     Davidson diagonalization with overlap
     ethr =  5.16E-08,  avg # of iterations =  1.0

     total cpu time spent up to now is       48.3 secs

     total energy              =     -81.16164265 Ry
     Harris-Foulkes estimate   =     -81.16164420 Ry
     estimated scf accuracy    <       0.00004118 Ry

     iteration # 13     ecut=    65.00 Ry     beta=0.70
     Davidson diagonalization with overlap
     ethr =  5.16E-08,  avg # of iterations =  1.0

     total cpu time spent up to now is       51.0 secs

     total energy              =     -81.16164351 Ry
     Harris-Foulkes estimate   =     -81.16164362 Ry
     estimated scf accuracy    <       0.00000869 Ry

     iteration # 14     ecut=    65.00 Ry     beta=0.70
     Davidson diagonalization with overlap
     ethr =  3.48E-08,  avg # of iterations =  1.0

     total cpu time spent up to now is       53.7 secs

     total energy              =     -81.16164360 Ry
     Harris-Foulkes estimate   =     -81.16164356 Ry
     estimated scf accuracy    <       0.00000075 Ry

     iteration # 15     ecut=    65.00 Ry     beta=0.70
     Davidson diagonalization with overlap
     ethr =  3.00E-09,  avg # of iterations =  1.0

     total cpu time spent up to now is       56.4 secs

     total energy              =     -81.16164349 Ry
     Harris-Foulkes estimate   =     -81.16164366 Ry
     estimated scf accuracy    <       0.00001108 Ry

     iteration # 16     ecut=    65.00 Ry     beta=0.70
     Davidson diagonalization with overlap
     ethr =  3.00E-09,  avg # of iterations =  1.0

     total cpu time spent up to now is       59.0 secs

     total energy              =     -81.16164355 Ry
     Harris-Foulkes estimate   =     -81.16164356 Ry
     estimated scf accuracy    <       0.00000037 Ry

     iteration # 17     ecut=    65.00 Ry     beta=0.70
     Davidson diagonalization with overlap
     ethr =  1.47E-09,  avg # of iterations =  1.0

     total cpu time spent up to now is       61.7 secs

     End of self-consistent calculation

          k = 0.0000 0.0000 0.0000 ( 14557 PWs)   bands (ev):

   -22.0005 -18.2495 -18.2493 -12.3767 -12.1324 -11.4414 -11.4414  -9.6673
    -5.6103  -5.6101  -4.4446  -4.4444  -0.5531   0.1129   0.1130   1.5447
     2.6573

          k = 0.0000 0.0577 0.0000 ( 14503 PWs)   bands (ev):

   -21.9841 -18.2769 -18.2721 -12.4101 -12.1938 -11.3508 -11.3199  -9.6457
    -5.6800  -5.6435  -4.4909  -4.4830  -0.5312   0.1395   0.1536   1.5714
     2.6836

          k = 0.0000 0.1155 0.0000 ( 14502 PWs)   bands (ev):

   -21.9351 -18.3645 -18.3314 -12.4920 -12.2799 -11.1320 -11.0256  -9.5810
    -5.8829  -5.7420  -4.6367  -4.5817  -0.4647   0.2006   0.2857   1.6509
     2.7619

          k = 0.0000 0.1732 0.0000 ( 14496 PWs)   bands (ev):

   -21.8538 -18.5147 -18.4131 -12.6197 -12.2649 -10.8490 -10.6402  -9.4735
    -6.2008  -5.9030  -4.8789  -4.7145  -0.3531   0.2697   0.5156   1.7821
     2.8914

          k = 0.0000 0.2309 0.0000 ( 14516 PWs)   bands (ev):

   -21.7408 -18.7219 -18.5046 -12.7616 -12.1353 -10.5291 -10.2109  -9.3235
    -6.6098  -6.1217  -5.1998  -4.8599  -0.1993   0.3319   0.8350   1.9634
     3.0701

          k = 0.0000 0.2887 0.0000 ( 14486 PWs)   bands (ev):

   -21.5967 -18.9741 -18.5958 -12.8923 -11.9086 -10.1828  -9.7717  -9.1316
    -7.0851  -6.3914  -5.5755  -5.0018  -0.0129   0.3894   1.2251   2.1927
     3.2936

          k = 0.0000 0.3464 0.0000 ( 14486 PWs)   bands (ev):

   -21.4228 -19.2574 -18.6792 -13.0033 -11.5995  -9.8164  -9.3531  -8.8989
    -7.6044  -6.7043  -5.9834  -5.1291   0.1707   0.4767   1.6585   2.4673
     3.5387

          k = 0.0000 0.4041 0.0000 ( 14490 PWs)   bands (ev):

   -21.2204 -19.5578 -18.7490 -13.0912 -11.2219  -9.4347  -8.9829  -8.6297
    -8.1475  -7.0520  -6.4047  -5.2345   0.2737   0.6739   2.0834   2.7804
     3.5320

          k = 0.0000 0.4619 0.0000 ( 14468 PWs)   bands (ev):

   -20.9918 -19.8633 -18.8014 -13.1548 -10.7882  -9.0432  -8.7128  -8.6822
    -8.3198  -7.4249  -6.8253  -5.3128   0.3059   0.9719   2.3290   3.1126
     3.3418

          k = 0.0000 0.5196 0.0000 ( 14446 PWs)   bands (ev):

   -20.7409 -20.1632 -18.8338 -13.1931 -10.3102  -9.2585  -8.6575  -8.4782
    -7.9933  -7.8106  -7.2343  -5.3609   0.3150   1.3135   2.1602   3.4470
     3.5259

          k = 0.0000-0.5774 0.0000 ( 14464 PWs)   bands (ev):

   -20.5176 -20.4031 -18.8448 -13.2060  -9.8266  -9.7663  -8.4690  -8.2269
    -8.1863  -7.6490  -7.5991  -5.3772   0.3168   1.5630   1.9245   3.6589
     3.6968

          k = 0.0500 0.0866 0.0000 ( 14505 PWs)   bands (ev):

   -21.9514 -18.3274 -18.3203 -12.4559 -12.2752 -11.1842 -11.1282  -9.6026
    -5.8176  -5.7080  -4.5739  -4.5649  -0.4868   0.1980   0.2253   1.6245
     2.7359

          k = 0.0500 0.1443 0.0000 ( 14514 PWs)   bands (ev):

   -21.8863 -18.4393 -18.3982 -12.5292 -12.3337 -10.9229 -10.8069  -9.5165
    -6.0812  -5.8342  -4.7575  -4.6919  -0.3971   0.2809   0.3884   1.7298
     2.8398

          k = 0.0500 0.2021 0.0000 ( 14513 PWs)   bands (ev):

   -21.7892 -18.6144 -18.4892 -12.6511 -12.2672 -10.6213 -10.4059  -9.3878
    -6.4484  -6.0187  -5.0344  -4.8371  -0.2626   0.3552   0.6539   1.8859
     2.9938

          k = 0.0500 0.2598 0.0000 ( 14502 PWs)   bands (ev):

   -21.6606 -18.8420 -18.5839 -12.7816 -12.0894 -10.2912  -9.9725  -9.2168
    -6.8942  -6.2565  -5.3802  -4.9849  -0.0877   0.4171   1.0040   2.0910
     3.1953

          k = 0.0500 0.3175 0.0000 ( 14494 PWs)   bands (ev):

   -21.5016 -19.1087 -18.6736 -12.8987 -11.8209  -9.9389  -9.5422  -9.0044
    -7.3949  -6.5408  -5.7707  -5.1224   0.1131   0.4781   1.4154   2.3429
     3.4351

          k = 0.0500 0.3753 0.0000 ( 14505 PWs)   bands (ev):

   -21.3134 -19.4000 -18.7520 -12.9958 -11.4766  -9.5694  -9.1456  -8.7528
    -7.9294  -6.8640  -6.1846  -5.2407   0.2864   0.5932   1.8534   2.6370
     3.6237

          k = 0.0500 0.4330 0.0000 ( 14458 PWs)   bands (ev):

   -21.0979 -19.7027 -18.8143 -13.0699 -11.0697  -9.1877  -8.8095  -8.5137
    -8.4331  -7.2174  -6.6051  -5.3337   0.3622   0.8349   2.2321   2.9608
     3.4040

          k = 0.0500 0.4907 0.0000 ( 14454 PWs)   bands (ev):

   -20.8577 -20.0057 -18.8574 -13.1199 -10.6125  -9.0430  -8.8002  -8.5553
    -8.1450  -7.5915  -7.0195  -5.3977   0.3841   1.1570   2.2908   3.2717
     3.4042

          k = 0.0500 0.5485 0.0000 ( 14443 PWs)   bands (ev):

   -20.6007 -20.2954 -18.8795 -13.1450 -10.1162  -9.5868  -8.4860  -8.3457
    -7.9818  -7.7941  -7.4176  -5.4302   0.3901   1.4909   2.0220   3.5789
     3.6443

          k = 0.1000 0.1732 0.0000 ( 14537 PWs)   bands (ev):

   -21.8053 -18.5434 -18.5189 -12.5224 -12.4073 -10.6109 -10.5088  -9.4092
    -6.3983  -5.9784  -4.9181  -4.8903  -0.2830   0.4339   0.5221   1.8599
     2.9682

          k = 0.1000 0.2309 0.0000 ( 14509 PWs)   bands (ev):

   -21.6926 -18.7254 -18.6284 -12.5901 -12.3279 -10.2836 -10.1248  -9.2596
    -6.8084  -6.1726  -5.2027  -5.0578  -0.1238   0.5433   0.7819   2.0397
     3.1453

          k = 0.1000 0.2887 0.0000 ( 14507 PWs)   bands (ev):

   -21.5491 -18.9637 -18.7275 -12.6973 -12.1118  -9.9487  -9.7028  -9.0682
    -7.2859  -6.4134  -5.5592  -5.2080   0.0755   0.6124   1.1446   2.2670
     3.3659

          k = 0.1000 0.3464 0.0000 ( 14494 PWs)   bands (ev):

   -21.3759 -19.2367 -18.8162 -12.7948 -11.8083  -9.5992  -9.2915  -8.8364
    -7.8075  -6.6951  -5.9538  -5.3408   0.3010   0.6737   1.5647   2.5387
     3.6038

          k = 0.1000 0.4041 0.0000 ( 14474 PWs)   bands (ev):

   -21.1745 -19.5296 -18.8898 -12.8743 -11.4339  -9.2378  -8.9245  -8.5721
    -8.3489  -7.0109  -6.3657  -5.4497   0.4950   0.7902   1.9940   2.8463
     3.5680

          k = 0.1000 0.4619 0.0000 ( 14451 PWs)   bands (ev):

   -20.9471 -19.8296 -18.9447 -12.9325 -11.0018  -8.9319  -8.8552  -8.6254
    -8.2609  -7.3531  -6.7794  -5.5302   0.5748   1.0462   2.2947   3.1438
     3.3484

          k = 0.1000 0.5196 0.0000 ( 14450 PWs)   bands (ev):

   -20.6979 -20.1254 -18.9785 -12.9679 -10.5239  -9.4713  -8.5239  -8.4010
    -7.9333  -7.7116  -7.1829  -5.5796   0.5966   1.3762   2.1965   3.3760
     3.5537

          k = 0.1000 0.5774 0.0000 ( 14442 PWs)   bands (ev):

   -20.4766 -20.3626 -18.9899 -12.9797 -10.0313  -9.9886  -8.4037  -8.0971
    -8.0682  -7.5934  -7.5440  -5.5963   0.6013   1.6190   1.9789   3.6145
     3.6567

          k = 0.1500 0.2598 0.0000 ( 14527 PWs)   bands (ev):

   -21.5650 -18.8534 -18.8079 -12.4567 -12.3862  -9.9139  -9.7907  -9.0895
    -7.2528  -6.3653  -5.3852  -5.3416   0.0610   0.7817   0.9330   2.2415
     3.3421

          k = 0.1500 0.3175 0.0000 ( 14505 PWs)   bands (ev):

   -21.4073 -19.0798 -18.9255 -12.5109 -12.1662  -9.5663  -9.4038  -8.8786
    -7.7545  -6.5957  -5.7258  -5.5088   0.2865   0.9003   1.2584   2.4887
     3.5720

          k = 0.1500 0.3753 0.0000 ( 14492 PWs)   bands (ev):

   -21.2208 -19.3520 -19.0134 -12.5866 -11.8346  -9.2261  -9.0222  -8.6313
    -8.2885  -6.8605  -6.1165  -5.6357   0.5425   0.9635   1.6748   2.7753
     3.7241

          k = 0.1500 0.4330 0.0000 ( 14466 PWs)   bands (ev):

   -21.0075 -19.6413 -19.0816 -12.6476 -11.4353  -8.9083  -8.8293  -8.6879
    -8.3386  -7.1548  -6.5208  -5.7341   0.7838   1.0560   2.0855   3.0780
     3.4559

          k = 0.1500 0.4907 0.0000 ( 14443 PWs)   bands (ev):

   -20.7703 -19.9346 -19.1283 -12.6896 -10.9821  -9.4123  -8.5500  -8.4253
    -8.0267  -7.4722  -6.9232  -5.8014   0.8929   1.2974   2.2927   3.2042
     3.4709

          k = 0.1500 0.5485 0.0000 ( 14455 PWs)   bands (ev):

   -20.5173 -20.2172 -19.1521 -12.7111 -10.4869  -9.9591  -8.3543  -8.1426
    -7.8092  -7.6817  -7.3119  -5.8355   0.9176   1.6073   2.1181   3.4327
     3.6330

          k = 0.2000 0.3464 0.0000 ( 14481 PWs)   bands (ev):

   -21.2363 -19.2063 -19.1419 -12.2505 -12.2101  -9.2034  -9.0714  -8.6516
    -8.2702  -6.8057  -5.8922  -5.8410   0.5382   1.2022   1.4068   2.7512
     3.7656

          k = 0.2000 0.4041 0.0000 ( 14463 PWs)   bands (ev):

   -21.0378 -19.4513 -19.2486 -12.2872 -11.8735  -8.8985  -8.8014  -8.7327
    -8.3776  -7.0432  -6.2532  -5.9805   0.8224   1.3220   1.7613   3.0414
     3.6762

          k = 0.2000 0.4619 0.0000 ( 14467 PWs)   bands (ev):

   -20.8145 -19.7319 -19.3115 -12.3305 -11.4539  -9.3854  -8.5601  -8.4395
    -8.0833  -7.3055  -6.6455  -6.0675   1.1126   1.3904   2.1429   3.2319
     3.4452

          k = 0.2000 0.5196 0.0000 ( 14467 PWs)   bands (ev):

   -20.5705 -20.0145 -19.3491 -12.3577 -10.9835  -9.9374  -8.3205  -8.1770
    -7.7607  -7.5873  -7.0337  -6.1201   1.2790   1.5757   2.2700   3.2018
     3.6016

          k = 0.2000 0.5774 0.0000 ( 14464 PWs)   bands (ev):

   -20.3556 -20.2429 -19.3617 -12.3670 -10.4851 -10.4632  -8.2408  -7.8881
    -7.8813  -7.4309  -7.3843  -6.1378   1.3059   1.7761   2.1418   3.4259
     3.4983

          k = 0.2500 0.4330 0.0000 ( 14478 PWs)   bands (ev):

   -20.8293 -19.5583 -19.4796 -11.9221 -11.9004  -9.3777  -8.5622  -8.4447
    -8.1021  -7.2460  -6.3813  -6.3299   1.1300   1.6431   1.9034   3.2869
     3.5644

          k = 0.2500 0.4907 0.0000 ( 14459 PWs)   bands (ev):

   -20.5985 -19.8005 -19.5618 -11.9393 -11.4746  -9.9293  -8.3021  -8.1940
    -7.7974  -7.4683  -6.7374  -6.4249   1.4476   1.7526   2.2011   3.1951
     3.4939

          k = 0.2500 0.5485 0.0000 ( 14462 PWs)   bands (ev):

   -20.3542 -20.0652 -19.5905 -11.9541 -10.9907 -10.4713  -8.1459  -7.9573
    -7.7075  -7.4665  -7.1083  -6.4620   1.6752   1.8388   2.2924   3.1876
     3.4276

          k = 0.3000 0.5196 0.0000 ( 14450 PWs)   bands (ev):

   -20.3649 -19.8731 -19.7893 -11.4961 -11.4833 -10.4712  -8.0887  -8.0063
    -7.6445  -7.4854  -6.8139  -6.7674   1.7634   1.9753   2.3456   3.1083
     3.2371

          k = 0.3000 0.5774 0.0000 ( 14434 PWs)   bands (ev):

   -20.1670 -20.0487 -19.8346 -11.4951 -11.0020 -10.9895  -7.9927  -7.8610
    -7.8072  -7.1721  -7.1250  -6.8072   1.9719   1.9723   2.4334   3.0925
     3.2522

          k = 0.0500-0.1443 0.0000 ( 14514 PWs)   bands (ev):

   -21.8863 -18.4393 -18.3983 -12.5292 -12.3337 -10.9229 -10.8069  -9.5165
    -6.0812  -5.8342  -4.7575  -4.6919  -0.3971   0.2809   0.3884   1.7298
     2.8398

          k = 0.0500-0.2021 0.0000 ( 14513 PWs)   bands (ev):

   -21.7892 -18.6144 -18.4893 -12.6511 -12.2672 -10.6213 -10.4059  -9.3878
    -6.4484  -6.0188  -5.0344  -4.8371  -0.2626   0.3552   0.6539   1.8859
     2.9938

          k = 0.0500-0.2598 0.0000 ( 14502 PWs)   bands (ev):

   -21.6606 -18.8420 -18.5839 -12.7816 -12.0894 -10.2912  -9.9725  -9.2168
    -6.8942  -6.2565  -5.3802  -4.9849  -0.0877   0.4171   1.0040   2.0910
     3.1953

          k = 0.0500-0.3175 0.0000 ( 14494 PWs)   bands (ev):

   -21.5016 -19.1087 -18.6737 -12.8987 -11.8209  -9.9389  -9.5422  -9.0044
    -7.3949  -6.5408  -5.7707  -5.1224   0.1131   0.4781   1.4154   2.3429
     3.4351

          k = 0.0500-0.3753 0.0000 ( 14505 PWs)   bands (ev):

   -21.3134 -19.4000 -18.7520 -12.9958 -11.4766  -9.5694  -9.1456  -8.7528
    -7.9294  -6.8640  -6.1846  -5.2407   0.2864   0.5932   1.8533   2.6370
     3.6237

          k = 0.0500-0.4330 0.0000 ( 14458 PWs)   bands (ev):

   -21.0979 -19.7027 -18.8143 -13.0699 -11.0697  -9.1877  -8.8095  -8.5137
    -8.4331  -7.2174  -6.6051  -5.3337   0.3622   0.8349   2.2321   2.9608
     3.4040

          k = 0.0500-0.4907 0.0000 ( 14454 PWs)   bands (ev):

   -20.8577 -20.0057 -18.8574 -13.1199 -10.6125  -9.0430  -8.8002  -8.5554
    -8.1450  -7.5915  -7.0195  -5.3977   0.3841   1.1570   2.2908   3.2717
     3.4042

          k = 0.0500-0.5485 0.0000 ( 14443 PWs)   bands (ev):

   -20.6007 -20.2954 -18.8795 -13.1450 -10.1162  -9.5868  -8.4860  -8.3458
    -7.9818  -7.7941  -7.4176  -5.4302   0.3901   1.4909   2.0220   3.5789
     3.6443

          k = 0.1000-0.2309 0.0000 ( 14509 PWs)   bands (ev):

   -21.6926 -18.7254 -18.6284 -12.5901 -12.3279 -10.2836 -10.1248  -9.2596
    -6.8084  -6.1727  -5.2026  -5.0578  -0.1238   0.5433   0.7819   2.0397
     3.1453

          k = 0.1000-0.2887 0.0000 ( 14507 PWs)   bands (ev):

   -21.5491 -18.9637 -18.7275 -12.6973 -12.1118  -9.9487  -9.7028  -9.0682
    -7.2859  -6.4134  -5.5592  -5.2080   0.0755   0.6124   1.1446   2.2670
     3.3659

          k = 0.1000-0.3464 0.0000 ( 14494 PWs)   bands (ev):

   -21.3759 -19.2367 -18.8162 -12.7948 -11.8083  -9.5992  -9.2915  -8.8364
    -7.8075  -6.6951  -5.9538  -5.3408   0.3010   0.6737   1.5647   2.5387
     3.6038

          k = 0.1000-0.4041 0.0000 ( 14474 PWs)   bands (ev):

   -21.1745 -19.5296 -18.8898 -12.8743 -11.4339  -9.2378  -8.9245  -8.5721
    -8.3489  -7.0109  -6.3657  -5.4497   0.4950   0.7902   1.9940   2.8463
     3.5680

          k = 0.1000-0.4619 0.0000 ( 14451 PWs)   bands (ev):

   -20.9471 -19.8296 -18.9447 -12.9325 -11.0018  -8.9319  -8.8552  -8.6254
    -8.2609  -7.3531  -6.7794  -5.5302   0.5748   1.0462   2.2947   3.1438
     3.3484

          k = 0.1000-0.5196 0.0000 ( 14450 PWs)   bands (ev):

   -20.6979 -20.1254 -18.9785 -12.9679 -10.5239  -9.4713  -8.5239  -8.4010
    -7.9333  -7.7116  -7.1829  -5.5796   0.5966   1.3762   2.1965   3.3760
     3.5537

          k = 0.1500-0.3175 0.0000 ( 14505 PWs)   bands (ev):

   -21.4073 -19.0798 -18.9256 -12.5109 -12.1661  -9.5663  -9.4039  -8.8786
    -7.7545  -6.5957  -5.7257  -5.5088   0.2866   0.9003   1.2584   2.4887
     3.5720

          k = 0.1500-0.3753 0.0000 ( 14492 PWs)   bands (ev):

   -21.2208 -19.3520 -19.0134 -12.5866 -11.8346  -9.2260  -9.0223  -8.6313
    -8.2885  -6.8606  -6.1165  -5.6357   0.5426   0.9635   1.6748   2.7753
     3.7241

          k = 0.1500-0.4330 0.0000 ( 14466 PWs)   bands (ev):

   -21.0075 -19.6413 -19.0816 -12.6476 -11.4353  -8.9083  -8.8293  -8.6879
    -8.3386  -7.1548  -6.5208  -5.7341   0.7838   1.0560   2.0855   3.0780
     3.4559

          k = 0.1500-0.4907 0.0000 ( 14443 PWs)   bands (ev):

   -20.7703 -19.9346 -19.1283 -12.6896 -10.9821  -9.4123  -8.5499  -8.4253
    -8.0267  -7.4722  -6.9232  -5.8014   0.8929   1.2974   2.2927   3.2042
     3.4709

          k = 0.1500-0.5485 0.0000 ( 14455 PWs)   bands (ev):

   -20.5173 -20.2172 -19.1521 -12.7111 -10.4869  -9.9591  -8.3543  -8.1426
    -7.8092  -7.6817  -7.3119  -5.8355   0.9176   1.6073   2.1181   3.4327
     3.6330

          k = 0.2000-0.4041 0.0000 ( 14463 PWs)   bands (ev):

   -21.0378 -19.4513 -19.2487 -12.2872 -11.8735  -8.8984  -8.8014  -8.7327
    -8.3776  -7.0433  -6.2532  -5.9806   0.8224   1.3220   1.7613   3.0414
     3.6764

          k = 0.2000-0.4619 0.0000 ( 14467 PWs)   bands (ev):

   -20.8145 -19.7319 -19.3115 -12.3305 -11.4539  -9.3854  -8.5600  -8.4396
    -8.0833  -7.3055  -6.6455  -6.0675   1.1126   1.3904   2.1429   3.2319
     3.4452

          k = 0.2000-0.5196 0.0000 ( 14467 PWs)   bands (ev):

   -20.5705 -20.0145 -19.3491 -12.3577 -10.9835  -9.9374  -8.3205  -8.1770
    -7.7607  -7.5873  -7.0337  -6.1201   1.2790   1.5757   2.2700   3.2018
     3.6016

          k = 0.2500-0.4907 0.0000 ( 14459 PWs)   bands (ev):

   -20.5985 -19.8005 -19.5619 -11.9393 -11.4746  -9.9293  -8.3020  -8.1940
    -7.7974  -7.4683  -6.7374  -6.4249   1.4476   1.7526   2.2011   3.1951
     3.4939

          k = 0.2500-0.5485 0.0000 ( 14462 PWs)   bands (ev):

   -20.3542 -20.0651 -19.5905 -11.9541 -10.9907 -10.4713  -8.1458  -7.9573
    -7.7075  -7.4665  -7.1083  -6.4621   1.6752   1.8388   2.2924   3.1876
     3.4276

     the Fermi energy is     0.2865 ev

!    total energy              =     -81.16164355 Ry
     Harris-Foulkes estimate   =     -81.16164356 Ry
     estimated scf accuracy    <          6.6E-09 Ry

     The total energy is the sum of the following terms:

     one-electron contribution =    -489.75373757 Ry
     hartree contribution      =     249.57013805 Ry
     xc contribution           =     -26.24314296 Ry
     ewald contribution        =     185.26510070 Ry
     smearing contrib. (-TS)   =      -0.00000177 Ry

     convergence has been achieved in  17 iterations

     Forces acting on atoms (Ry/au):

     atom    1 type  1   force =    -0.01633345    0.00000455   -0.01921385
     atom    2 type  2   force =     0.00803330    0.01389643    0.00769758
     atom    3 type  1   force =     0.00816279   -0.01414746   -0.01921385
     atom    4 type  2   force =     0.00801802   -0.01390525    0.00769758
     atom    5 type  1   force =     0.00817066    0.01414291   -0.01921385
     atom    6 type  2   force =    -0.01605131    0.00000882    0.00769758
     atom    7 type  3   force =     0.00000000    0.00000000    0.03454882

     Total force =     0.063657     Total SCF correction =     0.000143

     BFGS Geometry Optimization

     number of scf cycles    =   1
     number of bfgs steps    =   0

     energy   new            =     -81.1616435491 Ry

     new trust radius        =       0.0345488202 bohr
     new conv_thr            =       0.0000000100 Ry


ATOMIC_POSITIONS (angstrom)
B       -1.448655509   2.494148516  -0.010167532
N       -0.715755073   1.254426736   0.004073382
B        0.724313451   1.239586549  -0.010167532
N        1.444242952  -0.007358344   0.004073382
B        2.884323728   0.007484105  -0.010167532
N        1.431506012   2.494150778   0.004073382
Li      -0.000006110   2.494146110   1.728282448



     Writing output data file BN-Li-TC.save
     Check: negative starting charge=   -0.001192
     NEW-OLD atomic charge density approx. for the potential
     Check: negative starting charge=   -0.001180

     negative rho (up, down):  4.582E-04 0.000E+00

     total cpu time spent up to now is       63.0 secs

     per-process dynamical memory:    50.5 Mb

     Self-consistent Calculation

     iteration #  1     ecut=    65.00 Ry     beta=0.70
     Davidson diagonalization with overlap
     ethr =  1.00E-06,  avg # of iterations =  7.7

     negative rho (up, down):  2.887E-05 0.000E+00

     total cpu time spent up to now is       70.6 secs

     total energy              =     -81.16089427 Ry
     Harris-Foulkes estimate   =     -81.16434873 Ry
     estimated scf accuracy    <       0.00463377 Ry

     iteration #  2     ecut=    65.00 Ry     beta=0.70
     Davidson diagonalization with overlap
     ethr =  1.85E-05,  avg # of iterations =  4.6

     negative rho (up, down):  1.737E-07 0.000E+00

     total cpu time spent up to now is       75.6 secs

     total energy              =     -81.15741821 Ry
     Harris-Foulkes estimate   =     -81.17552619 Ry
     estimated scf accuracy    <       0.08891441 Ry

     iteration #  3     ecut=    65.00 Ry     beta=0.70
     Davidson diagonalization with overlap
     ethr =  1.85E-05,  avg # of iterations =  3.5

     total cpu time spent up to now is       79.9 secs

     total energy              =     -81.16471485 Ry
     Harris-Foulkes estimate   =     -81.16490395 Ry
     estimated scf accuracy    <       0.00227046 Ry

     iteration #  4     ecut=    65.00 Ry     beta=0.70
     Davidson diagonalization with overlap
     ethr =  9.08E-06,  avg # of iterations =  1.0

     total cpu time spent up to now is       82.6 secs

     total energy              =     -81.16468525 Ry
     Harris-Foulkes estimate   =     -81.16477882 Ry
     estimated scf accuracy    <       0.00067350 Ry

     iteration #  5     ecut=    65.00 Ry     beta=0.70
     Davidson diagonalization with overlap
     ethr =  2.69E-06,  avg # of iterations =  1.8

     total cpu time spent up to now is       85.5 secs

     total energy              =     -81.16470756 Ry
     Harris-Foulkes estimate   =     -81.16474133 Ry
     estimated scf accuracy    <       0.00046900 Ry

     iteration #  6     ecut=    65.00 Ry     beta=0.70
     Davidson diagonalization with overlap
     ethr =  1.88E-06,  avg # of iterations =  1.0

     total cpu time spent up to now is       88.2 secs

     total energy              =     -81.16467290 Ry
     Harris-Foulkes estimate   =     -81.16473728 Ry
     estimated scf accuracy    <       0.00033739 Ry

     iteration #  7     ecut=    65.00 Ry     beta=0.70
     Davidson diagonalization with overlap
     ethr =  1.35E-06,  avg # of iterations =  1.1

     total cpu time spent up to now is       90.9 secs

     total energy              =     -81.16471822 Ry
     Harris-Foulkes estimate   =     -81.16479834 Ry
     estimated scf accuracy    <       0.00157377 Ry

     iteration #  8     ecut=    65.00 Ry     beta=0.70
     Davidson diagonalization with overlap
     ethr =  1.35E-06,  avg # of iterations =  1.0

     total cpu time spent up to now is       93.5 secs

     total energy              =     -81.16472544 Ry
     Harris-Foulkes estimate   =     -81.16474412 Ry
     estimated scf accuracy    <       0.00046965 Ry

     iteration #  9     ecut=    65.00 Ry     beta=0.70
     Davidson diagonalization with overlap
     ethr =  1.35E-06,  avg # of iterations =  1.0

     total cpu time spent up to now is       96.2 secs

     total energy              =     -81.16473285 Ry
     Harris-Foulkes estimate   =     -81.16473297 Ry
     estimated scf accuracy    <       0.00000084 Ry

     iteration # 10     ecut=    65.00 Ry     beta=0.70
     Davidson diagonalization with overlap
     ethr =  3.34E-09,  avg # of iterations =  1.6

     total cpu time spent up to now is       99.0 secs

     total energy              =     -81.16473293 Ry
     Harris-Foulkes estimate   =     -81.16473297 Ry
     estimated scf accuracy    <       0.00000100 Ry

     iteration # 11     ecut=    65.00 Ry     beta=0.70
     Davidson diagonalization with overlap
     ethr =  3.34E-09,  avg # of iterations =  1.0

     total cpu time spent up to now is      101.7 secs

     total energy              =     -81.16473295 Ry
     Harris-Foulkes estimate   =     -81.16473295 Ry
     estimated scf accuracy    <       0.00000003 Ry

     iteration # 12     ecut=    65.00 Ry     beta=0.70
     Davidson diagonalization with overlap
     ethr =  1.23E-10,  avg # of iterations =  2.0

     total cpu time spent up to now is      105.3 secs

     total energy              =     -81.16473294 Ry
     Harris-Foulkes estimate   =     -81.16473300 Ry
     estimated scf accuracy    <       0.00000274 Ry

     iteration # 13     ecut=    65.00 Ry     beta=0.70
     Davidson diagonalization with overlap
     ethr =  1.23E-10,  avg # of iterations =  1.0

     total cpu time spent up to now is      107.9 secs

     total energy              =     -81.16473295 Ry
     Harris-Foulkes estimate   =     -81.16473296 Ry
     estimated scf accuracy    <       0.00000051 Ry

     iteration # 14     ecut=    65.00 Ry     beta=0.70
     Davidson diagonalization with overlap
     ethr =  1.23E-10,  avg # of iterations =  1.0

     total cpu time spent up to now is      110.5 secs

     total energy              =     -81.16473295 Ry
     Harris-Foulkes estimate   =     -81.16473295 Ry
     estimated scf accuracy    <       0.00000020 Ry

     iteration # 15     ecut=    65.00 Ry     beta=0.70
     Davidson diagonalization with overlap
     ethr =  1.23E-10,  avg # of iterations =  1.0

     total cpu time spent up to now is      113.2 secs

     total energy              =     -81.16473295 Ry
     Harris-Foulkes estimate   =     -81.16473295 Ry
     estimated scf accuracy    <       0.00000007 Ry

     iteration # 16     ecut=    65.00 Ry     beta=0.70
     Davidson diagonalization with overlap
     ethr =  1.23E-10,  avg # of iterations =  1.0

     total cpu time spent up to now is      115.8 secs

     total energy              =     -81.16473295 Ry
     Harris-Foulkes estimate   =     -81.16473295 Ry
     estimated scf accuracy    <       0.00000001 Ry

     iteration # 17     ecut=    65.00 Ry     beta=0.70
     Davidson diagonalization with overlap
     ethr =  5.20E-11,  avg # of iterations =  1.0

     total cpu time spent up to now is      118.4 secs

     End of self-consistent calculation

          k = 0.0000 0.0000 0.0000 ( 14557 PWs)   bands (ev):

   -22.0111 -18.2568 -18.2566 -12.3775 -12.1487 -11.4549 -11.4549  -9.6799
    -5.6191  -5.6190  -4.4562  -4.4560  -0.5391   0.1377   0.1378   1.4949
     2.6613

          k = 0.0000 0.0577 0.0000 ( 14503 PWs)   bands (ev):

   -21.9948 -18.2843 -18.2793 -12.4101 -12.2119 -11.3648 -11.3319  -9.6583
    -5.6888  -5.6523  -4.5023  -4.4944  -0.5170   0.1636   0.1778   1.5216
     2.6876

          k = 0.0000 0.1155 0.0000 ( 14502 PWs)   bands (ev):

   -21.9458 -18.3722 -18.3385 -12.4927 -12.2985 -11.1466 -11.0358  -9.5936
    -5.8914  -5.7507  -4.6476  -4.5925  -0.4500   0.2229   0.3085   1.6009
     2.7661

          k = 0.0000 0.1732 0.0000 ( 14496 PWs)   bands (ev):

   -21.8645 -18.5226 -18.4201 -12.6252 -12.2795 -10.8640 -10.6495  -9.4861
    -6.2089  -5.9114  -4.8890  -4.7247  -0.3379   0.2891   0.5369   1.7318
     2.8957

          k = 0.0000 0.2309 0.0000 ( 14516 PWs)   bands (ev):

   -21.7514 -18.7300 -18.5115 -12.7700 -12.1475 -10.5442 -10.2198  -9.3361
    -6.6173  -6.1296  -5.2093  -4.8694  -0.1834   0.3479   0.8552   1.9124
     3.0747

          k = 0.0000 0.2887 0.0000 ( 14486 PWs)   bands (ev):

   -21.6074 -18.9824 -18.6027 -12.9021 -11.9198 -10.1984  -9.7803  -9.1441
    -7.0920  -6.3986  -5.5847  -5.0107   0.0040   0.4017   1.2455   2.1407
     3.2986

          k = 0.0000 0.3464 0.0000 ( 14486 PWs)   bands (ev):

   -21.4335 -19.2657 -18.6860 -13.0139 -11.6103  -9.8328  -9.3616  -8.9113
    -7.6101  -6.7107  -5.9925  -5.1376   0.1879   0.4864   1.6821   2.4133
     3.5420

          k = 0.0000 0.4041 0.0000 ( 14490 PWs)   bands (ev):

   -21.2312 -19.5661 -18.7558 -13.1024 -11.2328  -9.4532  -8.9924  -8.6417
    -8.1507  -7.0571  -6.4140  -5.2426   0.2873   0.6857   2.1172   2.7228
     3.5038

          k = 0.0000 0.4619 0.0000 ( 14468 PWs)   bands (ev):

   -21.0030 -19.8714 -18.8082 -13.1663 -10.7995  -9.0705  -8.7521  -8.6468
    -8.3326  -7.4277  -6.8349  -5.3207   0.3161   0.9868   2.3813   3.0470
     3.2860

          k = 0.0000 0.5196 0.0000 ( 14446 PWs)   bands (ev):

   -20.7532 -20.1701 -18.8406 -13.2048 -10.3230  -9.2728  -8.6821  -8.4742
    -8.0054  -7.8081  -7.2440  -5.3687   0.3234   1.3315   2.2003   3.3772
     3.4599

          k = 0.0000-0.5774 0.0000 ( 14464 PWs)   bands (ev):

   -20.5389 -20.4010 -18.8516 -13.2177  -9.8637  -9.7531  -8.5000  -8.2686
    -8.1354  -7.6660  -7.6034  -5.3850   0.3247   1.5832   1.9557   3.5931
     3.6012

          k = 0.0500 0.0866 0.0000 ( 14505 PWs)   bands (ev):

   -21.9621 -18.3355 -18.3269 -12.4544 -12.2957 -11.1995 -11.1380  -9.6152
    -5.8262  -5.7167  -4.5852  -4.5756  -0.4723   0.2209   0.2484   1.5745
     2.7400

          k = 0.0500 0.1443 0.0000 ( 14514 PWs)   bands (ev):

   -21.8970 -18.4474 -18.4050 -12.5298 -12.3529 -10.9387 -10.8155  -9.5291
    -6.0894  -5.8427  -4.7680  -4.7022  -0.3821   0.3016   0.4100   1.6796
     2.8440

          k = 0.0500 0.2021 0.0000 ( 14513 PWs)   bands (ev):

   -21.7998 -18.6225 -18.4960 -12.6575 -12.2812 -10.6369 -10.4142  -9.4003
    -6.4561  -6.0269  -5.0442  -4.8468  -0.2470   0.3729   0.6741   1.8353
     2.9983

          k = 0.0500 0.2598 0.0000 ( 14502 PWs)   bands (ev):

   -21.6712 -18.8503 -18.5907 -12.7906 -12.1013 -10.3069  -9.9808  -9.2293
    -6.9013  -6.2642  -5.3895  -4.9941  -0.0714   0.4314   1.0236   2.0396
     3.2002

          k = 0.0500 0.3175 0.0000 ( 14494 PWs)   bands (ev):

   -21.5123 -19.1170 -18.6804 -12.9090 -11.8321  -9.9551  -9.5505  -9.0169
    -7.4010  -6.5479  -5.7798  -5.1311   0.1304   0.4890   1.4363   2.2900
     3.4402

          k = 0.0500 0.3753 0.0000 ( 14505 PWs)   bands (ev):

   -21.3242 -19.4084 -18.7588 -13.0067 -11.4875  -9.5870  -9.1542  -8.7651
    -7.9336  -6.8700  -6.1938  -5.2489   0.3028   0.6031   1.8798   2.5816
     3.6167

          k = 0.0500 0.4330 0.0000 ( 14458 PWs)   bands (ev):

   -21.1088 -19.7110 -18.8211 -13.0812 -11.0808  -9.2099  -8.8229  -8.5120
    -8.4420  -7.2219  -6.6145  -5.3417   0.3743   0.8481   2.2747   2.9000
     3.3613

          k = 0.0500 0.4907 0.0000 ( 14454 PWs)   bands (ev):

   -20.8693 -20.0134 -18.8642 -13.1314 -10.6243  -9.0707  -8.8068  -8.5530
    -8.1574  -7.5930  -7.0292  -5.4055   0.3936   1.1735   2.3404   3.2043
     3.3422

          k = 0.0500 0.5485 0.0000 ( 14443 PWs)   bands (ev):

   -20.6152 -20.3002 -18.8863 -13.1566 -10.1309  -9.5975  -8.5145  -8.3456
    -7.9743  -7.8054  -7.4271  -5.4380   0.3984   1.5107   2.0559   3.5099
     3.5641

          k = 0.1000 0.1732 0.0000 ( 14537 PWs)   bands (ev):

   -21.8160 -18.5535 -18.5238 -12.5171 -12.4331 -10.6293 -10.5144  -9.4218
    -6.4060  -5.9867  -4.9289  -4.8991  -0.2676   0.4525   0.5420   1.8094
     2.9727

          k = 0.1000 0.2309 0.0000 ( 14509 PWs)   bands (ev):

   -21.7033 -18.7344 -18.6344 -12.5957 -12.3432 -10.3015 -10.1307  -9.2721
    -6.8155  -6.1807  -5.2123  -5.0666  -0.1079   0.5593   0.8005   1.9885
     3.1501

          k = 0.1000 0.2887 0.0000 ( 14507 PWs)   bands (ev):

   -21.5598 -18.9724 -18.7339 -12.7065 -12.1239  -9.9660  -9.7097  -9.0806
    -7.2919  -6.4210  -5.5684  -5.2166   0.0921   0.6255   1.1632   2.2148
     3.3713

          k = 0.1000 0.3464 0.0000 ( 14494 PWs)   bands (ev):

   -21.3866 -19.2453 -18.8228 -12.8053 -11.8196  -9.6173  -9.2990  -8.8488
    -7.8117  -6.7021  -5.9628  -5.3490   0.3186   0.6839   1.5858   2.4845
     3.6081

          k = 0.1000 0.4041 0.0000 ( 14474 PWs)   bands (ev):

   -21.1853 -19.5380 -18.8965 -12.8854 -11.4450  -9.2597  -8.9341  -8.5830
    -8.3484  -7.0170  -6.3749  -5.4577   0.5114   0.8004   2.0237   2.7887
     3.5434

          k = 0.1000 0.4619 0.0000 ( 14451 PWs)   bands (ev):

   -20.9583 -19.8377 -18.9514 -12.9439 -11.0133  -8.9949  -8.8258  -8.6212
    -8.2735  -7.3576  -6.7888  -5.5381   0.5868   1.0609   2.3441   3.0805
     3.2928

          k = 0.1000 0.5196 0.0000 ( 14450 PWs)   bands (ev):

   -20.7102 -20.1324 -18.9852 -12.9795 -10.5363  -9.4874  -8.5419  -8.3988
    -7.9455  -7.7126  -7.1926  -5.5874   0.6063   1.3950   2.2391   3.3141
     3.4788

          k = 0.1000 0.5774 0.0000 ( 14442 PWs)   bands (ev):

   -20.4980 -20.3606 -18.9967 -12.9914 -10.0578  -9.9881  -8.4203  -8.1391
    -8.0294  -7.6102  -7.5485  -5.6041   0.6105   1.6414   2.0108   3.5542
     3.5664

          k = 0.1500 0.2598 0.0000 ( 14527 PWs)   bands (ev):

   -21.5757 -18.8657 -18.8108 -12.4484 -12.4159  -9.9351  -9.7936  -9.1019
    -7.2588  -6.3731  -5.3960  -5.3484   0.0772   0.7960   0.9505   2.1894
     3.3475

          k = 0.1500 0.3175 0.0000 ( 14505 PWs)   bands (ev):

   -21.4180 -19.0897 -18.9309 -12.5199 -12.1789  -9.5875  -9.4079  -8.8910
    -7.7587  -6.6033  -5.7350  -5.5167   0.3035   0.9129   1.2760   2.4351
     3.5782

          k = 0.1500 0.3753 0.0000 ( 14492 PWs)   bands (ev):

   -21.2316 -19.3610 -19.0195 -12.5973 -11.8461  -9.2501  -9.0284  -8.6429
    -8.2879  -6.8677  -6.1254  -5.6437   0.5606   0.9741   1.6960   2.7192
     3.7207

          k = 0.1500 0.4330 0.0000 ( 14466 PWs)   bands (ev):

   -21.0185 -19.6499 -19.0880 -12.6588 -11.4467  -8.9815  -8.7917  -8.6802
    -8.3515  -7.1612  -6.5299  -5.7420   0.8019   1.0666   2.1185   3.0187
     3.4203

          k = 0.1500 0.4907 0.0000 ( 14443 PWs)   bands (ev):

   -20.7819 -19.9425 -19.1349 -12.7012 -10.9939  -9.4318  -8.5585  -8.4260
    -8.0389  -7.4772  -6.9326  -5.8092   0.9063   1.3142   2.3437   3.1440
     3.3994

          k = 0.1500 0.5485 0.0000 ( 14455 PWs)   bands (ev):

   -20.5318 -20.2221 -19.1587 -12.7227 -10.4997  -9.9730  -8.3658  -8.1493
    -7.8107  -7.6929  -7.3213  -5.8433   0.9291   1.6304   2.1552   3.3744
     3.5527

          k = 0.2000 0.3464 0.0000 ( 14481 PWs)   bands (ev):

   -21.2470 -19.2204 -19.1431 -12.2418 -12.2410  -9.2311  -9.0735  -8.6634
    -8.2695  -6.8132  -5.9036  -5.8466   0.5559   1.2150   1.4243   2.6954
     3.7719

          k = 0.2000 0.4041 0.0000 ( 14463 PWs)   bands (ev):

   -21.0488 -19.4617 -19.2535 -12.2981 -11.8852  -8.9743  -8.7595  -8.7258
    -8.3906  -7.0506  -6.2624  -5.9882   0.8415   1.3348   1.7826   2.9827
     3.6634

          k = 0.2000 0.4619 0.0000 ( 14467 PWs)   bands (ev):

   -20.8258 -19.7409 -19.3174 -12.3419 -11.4655  -9.4067  -8.5631  -8.4425
    -8.0957  -7.3124  -6.6547  -6.0753   1.1337   1.4032   2.1788   3.1861
     3.3840

          k = 0.2000 0.5196 0.0000 ( 14467 PWs)   bands (ev):

   -20.5830 -20.0219 -19.3554 -12.3694 -10.9956  -9.9525  -8.3285  -8.1816
    -7.7725  -7.5932  -7.0430  -6.1280   1.2965   1.5966   2.3183   3.1443
     3.5226

          k = 0.2000 0.5774 0.0000 ( 14464 PWs)   bands (ev):

   -20.3773 -20.2410 -19.3681 -12.3787 -10.4966 -10.4778  -8.2488  -7.9132
    -7.8682  -7.4471  -7.3888  -6.1457   1.3216   1.8059   2.1762   3.4011
     3.4037

          k = 0.2500 0.4330 0.0000 ( 14478 PWs)   bands (ev):

   -20.8405 -19.5733 -19.4795 -11.9318 -11.9137  -9.3996  -8.5633  -8.4485
    -8.1145  -7.2535  -6.3933  -6.3347   1.1513   1.6616   1.9256   3.2340
     3.5438

          k = 0.2500 0.4907 0.0000 ( 14459 PWs)   bands (ev):

   -20.6105 -19.8104 -19.5662 -11.9511 -11.4863  -9.9448  -8.3076  -8.1994
    -7.8091  -7.4759  -6.7468  -6.4326   1.4731   1.7743   2.2375   3.1598
     3.4471

          k = 0.2500 0.5485 0.0000 ( 14462 PWs)   bands (ev):

   -20.3696 -20.0706 -19.5960 -11.9659 -11.0029 -10.4848  -8.1518  -7.9635
    -7.7157  -7.4778  -7.1174  -6.4701   1.7022   1.8695   2.3345   3.1411
     3.3814

          k = 0.3000 0.5196 0.0000 ( 14450 PWs)   bands (ev):

   -20.3789 -19.8863 -19.7884 -11.5122 -11.4911 -10.4847  -8.0927  -8.0139
    -7.6536  -7.4965  -6.8266  -6.7719   1.7968   2.0138   2.3852   3.0890
     3.1617

          k = 0.3000 0.5774 0.0000 ( 14434 PWs)   bands (ev):

   -20.1920 -20.0472 -19.8375 -11.5073 -11.0133 -11.0031  -7.9962  -7.8560
    -7.8299  -7.1880  -7.1294  -6.8150   2.0138   2.0156   2.4802   3.0785
     3.1611

          k = 0.0500-0.1443 0.0000 ( 14514 PWs)   bands (ev):

   -21.8970 -18.4473 -18.4050 -12.5298 -12.3529 -10.9387 -10.8155  -9.5291
    -6.0894  -5.8428  -4.7680  -4.7022  -0.3821   0.3016   0.4100   1.6796
     2.8440

          k = 0.0500-0.2021 0.0000 ( 14513 PWs)   bands (ev):

   -21.7998 -18.6225 -18.4961 -12.6575 -12.2812 -10.6369 -10.4142  -9.4003
    -6.4561  -6.0269  -5.0441  -4.8468  -0.2470   0.3729   0.6741   1.8353
     2.9983

          k = 0.0500-0.2598 0.0000 ( 14502 PWs)   bands (ev):

   -21.6712 -18.8503 -18.5907 -12.7906 -12.1013 -10.3069  -9.9808  -9.2293
    -6.9013  -6.2642  -5.3895  -4.9941  -0.0714   0.4314   1.0236   2.0396
     3.2002

          k = 0.0500-0.3175 0.0000 ( 14494 PWs)   bands (ev):

   -21.5123 -19.1170 -18.6804 -12.9090 -11.8321  -9.9551  -9.5505  -9.0169
    -7.4010  -6.5479  -5.7798  -5.1311   0.1304   0.4890   1.4363   2.2900
     3.4402

          k = 0.0500-0.3753 0.0000 ( 14505 PWs)   bands (ev):

   -21.3242 -19.4084 -18.7588 -13.0067 -11.4875  -9.5870  -9.1542  -8.7651
    -7.9336  -6.8700  -6.1938  -5.2489   0.3028   0.6031   1.8798   2.5816
     3.6167

          k = 0.0500-0.4330 0.0000 ( 14458 PWs)   bands (ev):

   -21.1088 -19.7110 -18.8211 -13.0812 -11.0808  -9.2099  -8.8229  -8.5120
    -8.4420  -7.2219  -6.6145  -5.3417   0.3743   0.8481   2.2747   2.9000
     3.3613

          k = 0.0500-0.4907 0.0000 ( 14454 PWs)   bands (ev):

   -20.8693 -20.0134 -18.8642 -13.1314 -10.6243  -9.0707  -8.8068  -8.5530
    -8.1574  -7.5930  -7.0292  -5.4055   0.3936   1.1735   2.3404   3.2043
     3.3422

          k = 0.0500-0.5485 0.0000 ( 14443 PWs)   bands (ev):

   -20.6152 -20.3002 -18.8863 -13.1566 -10.1309  -9.5975  -8.5145  -8.3457
    -7.9743  -7.8054  -7.4271  -5.4380   0.3984   1.5107   2.0559   3.5099
     3.5641

          k = 0.1000-0.2309 0.0000 ( 14509 PWs)   bands (ev):

   -21.7033 -18.7344 -18.6344 -12.5957 -12.3432 -10.3015 -10.1307  -9.2721
    -6.8155  -6.1807  -5.2123  -5.0667  -0.1079   0.5593   0.8005   1.9885
     3.1501

          k = 0.1000-0.2887 0.0000 ( 14507 PWs)   bands (ev):

   -21.5598 -18.9724 -18.7340 -12.7065 -12.1239  -9.9660  -9.7097  -9.0806
    -7.2919  -6.4210  -5.5684  -5.2166   0.0921   0.6255   1.1632   2.2148
     3.3713

          k = 0.1000-0.3464 0.0000 ( 14494 PWs)   bands (ev):

   -21.3866 -19.2453 -18.8228 -12.8053 -11.8196  -9.6173  -9.2990  -8.8488
    -7.8117  -6.7021  -5.9628  -5.3491   0.3186   0.6839   1.5858   2.4845
     3.6081

          k = 0.1000-0.4041 0.0000 ( 14474 PWs)   bands (ev):

   -21.1853 -19.5380 -18.8965 -12.8854 -11.4450  -9.2597  -8.9341  -8.5830
    -8.3484  -7.0170  -6.3749  -5.4577   0.5114   0.8004   2.0237   2.7887
     3.5434

          k = 0.1000-0.4619 0.0000 ( 14451 PWs)   bands (ev):

   -20.9583 -19.8377 -18.9514 -12.9439 -11.0133  -8.9949  -8.8258  -8.6212
    -8.2735  -7.3576  -6.7888  -5.5381   0.5868   1.0609   2.3441   3.0805
     3.2928

          k = 0.1000-0.5196 0.0000 ( 14450 PWs)   bands (ev):

   -20.7102 -20.1324 -18.9852 -12.9795 -10.5363  -9.4874  -8.5419  -8.3988
    -7.9455  -7.7126  -7.1926  -5.5874   0.6063   1.3950   2.2391   3.3140
     3.4788

          k = 0.1500-0.3175 0.0000 ( 14505 PWs)   bands (ev):

   -21.4180 -19.0896 -18.9309 -12.5199 -12.1789  -9.5875  -9.4079  -8.8910
    -7.7586  -6.6033  -5.7349  -5.5168   0.3035   0.9129   1.2760   2.4351
     3.5782

          k = 0.1500-0.3753 0.0000 ( 14492 PWs)   bands (ev):

   -21.2316 -19.3610 -19.0196 -12.5973 -11.8461  -9.2501  -9.0284  -8.6429
    -8.2879  -6.8677  -6.1254  -5.6437   0.5606   0.9741   1.6960   2.7192
     3.7207

          k = 0.1500-0.4330 0.0000 ( 14466 PWs)   bands (ev):

   -21.0185 -19.6499 -19.0880 -12.6588 -11.4467  -8.9815  -8.7916  -8.6802
    -8.3515  -7.1613  -6.5299  -5.7420   0.8019   1.0666   2.1185   3.0187
     3.4203

          k = 0.1500-0.4907 0.0000 ( 14443 PWs)   bands (ev):

   -20.7819 -19.9425 -19.1349 -12.7012 -10.9939  -9.4318  -8.5585  -8.4261
    -8.0389  -7.4772  -6.9326  -5.8092   0.9063   1.3142   2.3437   3.1440
     3.3994

          k = 0.1500-0.5485 0.0000 ( 14455 PWs)   bands (ev):

   -20.5318 -20.2221 -19.1587 -12.7227 -10.4997  -9.9730  -8.3658  -8.1493
    -7.8107  -7.6929  -7.3213  -5.8433   0.9291   1.6304   2.1552   3.3744
     3.5527

          k = 0.2000-0.4041 0.0000 ( 14463 PWs)   bands (ev):

   -21.0488 -19.4617 -19.2535 -12.2981 -11.8852  -8.9743  -8.7594  -8.7259
    -8.3906  -7.0506  -6.2624  -5.9882   0.8415   1.3348   1.7826   2.9827
     3.6635

          k = 0.2000-0.4619 0.0000 ( 14467 PWs)   bands (ev):

   -20.8258 -19.7409 -19.3174 -12.3419 -11.4655  -9.4067  -8.5630  -8.4425
    -8.0957  -7.3124  -6.6547  -6.0753   1.1337   1.4032   2.1787   3.1861
     3.3840

          k = 0.2000-0.5196 0.0000 ( 14467 PWs)   bands (ev):

   -20.5830 -20.0219 -19.3554 -12.3694 -10.9956  -9.9525  -8.3285  -8.1816
    -7.7725  -7.5932  -7.0430  -6.1280   1.2965   1.5966   2.3183   3.1442
     3.5226

          k = 0.2500-0.4907 0.0000 ( 14459 PWs)   bands (ev):

   -20.6105 -19.8104 -19.5662 -11.9511 -11.4863  -9.9448  -8.3076  -8.1994
    -7.8091  -7.4760  -6.7467  -6.4327   1.4731   1.7743   2.2375   3.1598
     3.4471

          k = 0.2500-0.5485 0.0000 ( 14462 PWs)   bands (ev):

   -20.3696 -20.0706 -19.5960 -11.9659 -11.0029 -10.4848  -8.1518  -7.9636
    -7.7157  -7.4778  -7.1174  -6.4701   1.7022   1.8695   2.3345   3.1411
     3.3815

     the Fermi energy is     0.3035 ev

!    total energy              =     -81.16473295 Ry
     Harris-Foulkes estimate   =     -81.16473295 Ry
     estimated scf accuracy    <          8.4E-10 Ry

     The total energy is the sum of the following terms:

     one-electron contribution =    -489.44853890 Ry
     hartree contribution      =     249.40486838 Ry
     xc contribution           =     -26.23686353 Ry
     ewald contribution        =     185.11580193 Ry
     smearing contrib. (-TS)   =      -0.00000083 Ry

     convergence has been achieved in  17 iterations

     Forces acting on atoms (Ry/au):

     atom    1 type  1   force =    -0.00523620   -0.00000401   -0.01143370
     atom    2 type  2   force =     0.00108217    0.00188321    0.00104090
     atom    3 type  1   force =     0.00262158   -0.00453268   -0.01143370
     atom    4 type  2   force =     0.00108982   -0.00187879    0.00104090
     atom    5 type  1   force =     0.00261463    0.00453669   -0.01143370
     atom    6 type  2   force =    -0.00217199   -0.00000442    0.00104090
     atom    7 type  3   force =     0.00000000    0.00000000    0.03117841

     Total force =     0.038261     Total SCF correction =     0.000054

     number of scf cycles    =   2
     number of bfgs steps    =   1

     energy   old            =     -81.1616435491 Ry
     energy   new            =     -81.1647329471 Ry

     CASE: energy  _new < energy  _old

     new trust radius        =       0.0380037022 bohr
     new conv_thr            =       0.0000000031 Ry


ATOMIC_POSITIONS (angstrom)
B       -1.453066420   2.494146811  -0.018184691
N       -0.714386400   1.256800355   0.005386977
B        0.726520382   1.235767441  -0.018184691
N        1.445614229  -0.009730459   0.005386977
B        2.886527707   0.011304918  -0.018184691
N        1.428766060   2.494149274   0.005386977
Li      -0.000006110   2.494146110   1.748393141



     Writing output data file BN-Li-TC.save
     Check: negative starting charge=   -0.001180
     NEW-OLD atomic charge density approx. for the potential
     Check: negative starting charge=   -0.001187

     negative rho (up, down):  4.872E-04 0.000E+00

     total cpu time spent up to now is      119.6 secs

     per-process dynamical memory:    51.3 Mb

     Self-consistent Calculation

     iteration #  1     ecut=    65.00 Ry     beta=0.70
     Davidson diagonalization with overlap
     ethr =  1.00E-06,  avg # of iterations =  6.8

     negative rho (up, down):  3.150E-05 0.000E+00

     total cpu time spent up to now is      126.2 secs

     total energy              =     -81.16321462 Ry
     Harris-Foulkes estimate   =     -81.16600547 Ry
     estimated scf accuracy    <       0.00344901 Ry

     iteration #  2     ecut=    65.00 Ry     beta=0.70
     Davidson diagonalization with overlap
     ethr =  1.38E-05,  avg # of iterations =  4.8

     negative rho (up, down):  1.763E-07 0.000E+00

     total cpu time spent up to now is      131.1 secs

     total energy              =     -81.16061193 Ry
     Harris-Foulkes estimate   =     -81.17488618 Ry
     estimated scf accuracy    <       0.07349442 Ry

     iteration #  3     ecut=    65.00 Ry     beta=0.70
     Davidson diagonalization with overlap
     ethr =  1.38E-05,  avg # of iterations =  3.5

     total cpu time spent up to now is      135.3 secs

     total energy              =     -81.16626788 Ry
     Harris-Foulkes estimate   =     -81.16647472 Ry
     estimated scf accuracy    <       0.00269288 Ry

     iteration #  4     ecut=    65.00 Ry     beta=0.70
     Davidson diagonalization with overlap
     ethr =  1.08E-05,  avg # of iterations =  1.0

     total cpu time spent up to now is      138.0 secs

     total energy              =     -81.16623571 Ry
     Harris-Foulkes estimate   =     -81.16632342 Ry
     estimated scf accuracy    <       0.00081044 Ry

     iteration #  5     ecut=    65.00 Ry     beta=0.70
     Davidson diagonalization with overlap
     ethr =  3.24E-06,  avg # of iterations =  1.3

     total cpu time spent up to now is      140.7 secs

     total energy              =     -81.16630657 Ry
     Harris-Foulkes estimate   =     -81.16633125 Ry
     estimated scf accuracy    <       0.00024478 Ry

     iteration #  6     ecut=    65.00 Ry     beta=0.70
     Davidson diagonalization with overlap
     ethr =  9.79E-07,  avg # of iterations =  1.0

     total cpu time spent up to now is      143.4 secs

     total energy              =     -81.16626101 Ry
     Harris-Foulkes estimate   =     -81.16630965 Ry
     estimated scf accuracy    <       0.00010715 Ry

     iteration #  7     ecut=    65.00 Ry     beta=0.70
     Davidson diagonalization with overlap
     ethr =  4.29E-07,  avg # of iterations =  2.2

     total cpu time spent up to now is      146.5 secs

     total energy              =     -81.16631858 Ry
     Harris-Foulkes estimate   =     -81.16655888 Ry
     estimated scf accuracy    <       0.00292750 Ry

     iteration #  8     ecut=    65.00 Ry     beta=0.70
     Davidson diagonalization with overlap
     ethr =  4.29E-07,  avg # of iterations =  1.4

     total cpu time spent up to now is      149.3 secs

     total energy              =     -81.16633832 Ry
     Harris-Foulkes estimate   =     -81.16635261 Ry
     estimated scf accuracy    <       0.00094059 Ry

     iteration #  9     ecut=    65.00 Ry     beta=0.70
     Davidson diagonalization with overlap
     ethr =  4.29E-07,  avg # of iterations =  1.0

     total cpu time spent up to now is      152.0 secs

     total energy              =     -81.16629172 Ry
     Harris-Foulkes estimate   =     -81.16633893 Ry
     estimated scf accuracy    <       0.00083621 Ry

     iteration # 10     ecut=    65.00 Ry     beta=0.70
     Davidson diagonalization with overlap
     ethr =  4.29E-07,  avg # of iterations =  1.0

     total cpu time spent up to now is      154.6 secs

     total energy              =     -81.16631378 Ry
     Harris-Foulkes estimate   =     -81.16631039 Ry
     estimated scf accuracy    <       0.00003585 Ry

     iteration # 11     ecut=    65.00 Ry     beta=0.70
     Davidson diagonalization with overlap
     ethr =  1.43E-07,  avg # of iterations =  1.0

     total cpu time spent up to now is      157.2 secs

     total energy              =     -81.16631256 Ry
     Harris-Foulkes estimate   =     -81.16631666 Ry
     estimated scf accuracy    <       0.00013865 Ry

     iteration # 12     ecut=    65.00 Ry     beta=0.70
     Davidson diagonalization with overlap
     ethr =  1.43E-07,  avg # of iterations =  1.0

     total cpu time spent up to now is      159.9 secs

     total energy              =     -81.16630574 Ry
     Harris-Foulkes estimate   =     -81.16631257 Ry
     estimated scf accuracy    <       0.00014110 Ry

     iteration # 13     ecut=    65.00 Ry     beta=0.70
     Davidson diagonalization with overlap
     ethr =  1.43E-07,  avg # of iterations =  1.0

     total cpu time spent up to now is      162.5 secs

     total energy              =     -81.16631362 Ry
     Harris-Foulkes estimate   =     -81.16631285 Ry
     estimated scf accuracy    <       0.00016638 Ry

     iteration # 14     ecut=    65.00 Ry     beta=0.70
     Davidson diagonalization with overlap
     ethr =  1.43E-07,  avg # of iterations =  1.0

     total cpu time spent up to now is      165.1 secs

     total energy              =     -81.16631026 Ry
     Harris-Foulkes estimate   =     -81.16631362 Ry
     estimated scf accuracy    <       0.00015624 Ry

     iteration # 15     ecut=    65.00 Ry     beta=0.70
     Davidson diagonalization with overlap
     ethr =  1.43E-07,  avg # of iterations =  1.0

     total cpu time spent up to now is      167.8 secs

     total energy              =     -81.16631031 Ry
     Harris-Foulkes estimate   =     -81.16631052 Ry
     estimated scf accuracy    <       0.00004108 Ry

     iteration # 16     ecut=    65.00 Ry     beta=0.70
     Davidson diagonalization with overlap
     ethr =  1.43E-07,  avg # of iterations =  1.0

     total cpu time spent up to now is      170.4 secs

     total energy              =     -81.16631047 Ry
     Harris-Foulkes estimate   =     -81.16631035 Ry
     estimated scf accuracy    <       0.00001670 Ry

     iteration # 17     ecut=    65.00 Ry     beta=0.70
     Davidson diagonalization with overlap
     ethr =  6.68E-08,  avg # of iterations =  1.0

     total cpu time spent up to now is      173.0 secs

     total energy              =     -81.16631057 Ry
     Harris-Foulkes estimate   =     -81.16631050 Ry
     estimated scf accuracy    <       0.00003754 Ry

     iteration # 18     ecut=    65.00 Ry     beta=0.70
     Davidson diagonalization with overlap
     ethr =  6.68E-08,  avg # of iterations =  1.0

     total cpu time spent up to now is      175.7 secs

     total energy              =     -81.16631048 Ry
     Harris-Foulkes estimate   =     -81.16631058 Ry
     estimated scf accuracy    <       0.00004803 Ry

     iteration # 19     ecut=    65.00 Ry     beta=0.70
     Davidson diagonalization with overlap
     ethr =  6.68E-08,  avg # of iterations =  1.0

     total cpu time spent up to now is      178.3 secs

     total energy              =     -81.16631076 Ry
     Harris-Foulkes estimate   =     -81.16631049 Ry
     estimated scf accuracy    <       0.00003463 Ry

     iteration # 20     ecut=    65.00 Ry     beta=0.70
     Davidson diagonalization with overlap
     ethr =  6.68E-08,  avg # of iterations =  1.0

     total cpu time spent up to now is      181.0 secs

     total energy              =     -81.16631085 Ry
     Harris-Foulkes estimate   =     -81.16631082 Ry
     estimated scf accuracy    <       0.00007701 Ry

     iteration # 21     ecut=    65.00 Ry     beta=0.70
     Davidson diagonalization with overlap
     ethr =  6.68E-08,  avg # of iterations =  1.0

     total cpu time spent up to now is      183.6 secs

     total energy              =     -81.16631090 Ry
     Harris-Foulkes estimate   =     -81.16631085 Ry
     estimated scf accuracy    <       0.00007963 Ry

     iteration # 22     ecut=    65.00 Ry     beta=0.70
     Davidson diagonalization with overlap
     ethr =  6.68E-08,  avg # of iterations =  1.0

     total cpu time spent up to now is      186.2 secs

     total energy              =     -81.16631071 Ry
     Harris-Foulkes estimate   =     -81.16631090 Ry
     estimated scf accuracy    <       0.00008554 Ry

     iteration # 23     ecut=    65.00 Ry     beta=0.70
     Davidson diagonalization with overlap
     ethr =  6.68E-08,  avg # of iterations =  1.0

     total cpu time spent up to now is      188.9 secs

     total energy              =     -81.16630994 Ry
     Harris-Foulkes estimate   =     -81.16631072 Ry
     estimated scf accuracy    <       0.00006444 Ry

     iteration # 24     ecut=    65.00 Ry     beta=0.70
     Davidson diagonalization with overlap
     ethr =  6.68E-08,  avg # of iterations =  1.0

     total cpu time spent up to now is      191.5 secs

     total energy              =     -81.16631026 Ry
     Harris-Foulkes estimate   =     -81.16631026 Ry
     estimated scf accuracy    <       0.00000124 Ry

     iteration # 25     ecut=    65.00 Ry     beta=0.70
     Davidson diagonalization with overlap
     ethr =  4.97E-09,  avg # of iterations =  1.0

     total cpu time spent up to now is      194.1 secs

     total energy              =     -81.16631025 Ry
     Harris-Foulkes estimate   =     -81.16631026 Ry
     estimated scf accuracy    <       0.00000087 Ry

     iteration # 26     ecut=    65.00 Ry     beta=0.70
     Davidson diagonalization with overlap
     ethr =  3.46E-09,  avg # of iterations =  1.0

     total cpu time spent up to now is      196.8 secs

     total energy              =     -81.16631026 Ry
     Harris-Foulkes estimate   =     -81.16631025 Ry
     estimated scf accuracy    <       0.00000049 Ry

     iteration # 27     ecut=    65.00 Ry     beta=0.70
     Davidson diagonalization with overlap
     ethr =  1.95E-09,  avg # of iterations =  1.0

     total cpu time spent up to now is      199.4 secs

     total energy              =     -81.16631025 Ry
     Harris-Foulkes estimate   =     -81.16631026 Ry
     estimated scf accuracy    <       0.00000041 Ry

     iteration # 28     ecut=    65.00 Ry     beta=0.70
     Davidson diagonalization with overlap
     ethr =  1.65E-09,  avg # of iterations =  1.0

     total cpu time spent up to now is      202.0 secs

     total energy              =     -81.16631025 Ry
     Harris-Foulkes estimate   =     -81.16631025 Ry
     estimated scf accuracy    <       0.00000001 Ry

     iteration # 29     ecut=    65.00 Ry     beta=0.70
     Davidson diagonalization with overlap
     ethr =  4.74E-11,  avg # of iterations =  1.0

     total cpu time spent up to now is      204.6 secs

     End of self-consistent calculation

          k = 0.0000 0.0000 0.0000 ( 14557 PWs)   bands (ev):

   -22.0213 -18.2651 -18.2649 -12.3782 -12.1658 -11.4671 -11.4671  -9.6926
    -5.6275  -5.6274  -4.4647  -4.4646  -0.5341   0.1480   0.1480   1.4556
     2.6624

          k = 0.0000 0.0577 0.0000 ( 14503 PWs)   bands (ev):

   -22.0049 -18.2926 -18.2876 -12.4113 -12.2290 -11.3768 -11.3439  -9.6710
    -5.6972  -5.6607  -4.5107  -4.5028  -0.5118   0.1735   0.1874   1.4822
     2.6887

          k = 0.0000 0.1155 0.0000 ( 14502 PWs)   bands (ev):

   -21.9559 -18.3806 -18.3468 -12.4966 -12.3138 -11.1583 -11.0472  -9.6063
    -5.8997  -5.7589  -4.6557  -4.6007  -0.4445   0.2315   0.3167   1.5615
     2.7671

          k = 0.0000 0.1732 0.0000 ( 14496 PWs)   bands (ev):

   -21.8745 -18.5311 -18.4284 -12.6332 -12.2915 -10.8756 -10.6603  -9.4987
    -6.2169  -5.9194  -4.8969  -4.7326  -0.3321   0.2955   0.5435   1.6922
     2.8966

          k = 0.0000 0.2309 0.0000 ( 14516 PWs)   bands (ev):

   -21.7614 -18.7385 -18.5199 -12.7798 -12.1583 -10.5559 -10.2299  -9.3486
    -6.6250  -6.1373  -5.2171  -4.8770  -0.1771   0.3514   0.8606   1.8725
     3.0755

          k = 0.0000 0.2887 0.0000 ( 14486 PWs)   bands (ev):

   -21.6173 -18.9911 -18.6110 -12.9127 -11.9303 -10.2103  -9.7900  -9.1565
    -7.0991  -6.4059  -5.5926  -5.0180   0.0110   0.4019   1.2505   2.1002
     3.2989

          k = 0.0000 0.3464 0.0000 ( 14486 PWs)   bands (ev):

   -21.4434 -19.2745 -18.6944 -13.0249 -11.6209  -9.8453  -9.3712  -8.9237
    -7.6163  -6.7174  -6.0007  -5.1446   0.1950   0.4841   1.6881   2.3716
     3.5388

          k = 0.0000 0.4041 0.0000 ( 14490 PWs)   bands (ev):

   -21.2410 -19.5751 -18.7642 -13.1137 -11.2436  -9.4670  -9.0025  -8.6541
    -8.1543  -7.0629  -6.4227  -5.2494   0.2908   0.6851   2.1291   2.6788
     3.4752

          k = 0.0000 0.4619 0.0000 ( 14468 PWs)   bands (ev):

   -21.0127 -19.8805 -18.8166 -13.1777 -10.8109  -9.0911  -8.7709  -8.6358
    -8.3439  -7.4322  -6.8441  -5.3273   0.3164   0.9881   2.4076   2.9980
     3.2377

          k = 0.0000 0.5196 0.0000 ( 14446 PWs)   bands (ev):

   -20.7628 -20.1794 -18.8490 -13.2163 -10.3358  -9.2872  -8.6948  -8.4762
    -8.0174  -7.8094  -7.2536  -5.3752   0.3220   1.3335   2.2203   3.3228
     3.4064

          k = 0.0000-0.5774 0.0000 ( 14464 PWs)   bands (ev):

   -20.5486 -20.4103 -18.8600 -13.2292  -9.8903  -9.7508  -8.5174  -8.2820
    -8.1251  -7.6775  -7.6120  -5.3915   0.3228   1.5832   1.9735   3.5254
     3.5467

          k = 0.0500 0.0866 0.0000 ( 14505 PWs)   bands (ev):

   -21.9722 -18.3439 -18.3352 -12.4560 -12.3131 -11.2111 -11.1497  -9.6279
    -5.8345  -5.7250  -4.5934  -4.5840  -0.4670   0.2305   0.2565   1.5352
     2.7410

          k = 0.0500 0.1443 0.0000 ( 14514 PWs)   bands (ev):

   -21.9070 -18.4558 -18.4133 -12.5348 -12.3677 -10.9503 -10.8264  -9.5417
    -6.0975  -5.8509  -4.7759  -4.7102  -0.3765   0.3095   0.4166   1.6401
     2.8450

          k = 0.0500 0.2021 0.0000 ( 14513 PWs)   bands (ev):

   -21.8098 -18.6310 -18.5044 -12.6664 -12.2928 -10.6486 -10.4245  -9.4129
    -6.4638  -6.0348  -5.0519  -4.8545  -0.2411   0.3782   0.6794   1.7955
     2.9992

          k = 0.0500 0.2598 0.0000 ( 14502 PWs)   bands (ev):

   -21.6812 -18.8589 -18.5991 -12.8008 -12.1120 -10.3187  -9.9907  -9.2418
    -6.9086  -6.2717  -5.3972  -5.0014  -0.0651   0.4337   1.0282   1.9994
     3.2008

          k = 0.0500 0.3175 0.0000 ( 14494 PWs)   bands (ev):

   -21.5222 -19.1258 -18.6888 -12.9198 -11.8426  -9.9673  -9.5600  -9.0293
    -7.4075  -6.5549  -5.7878  -5.1382   0.1375   0.4880   1.4411   2.2489
     3.4397

          k = 0.0500 0.3753 0.0000 ( 14505 PWs)   bands (ev):

   -21.3340 -19.4173 -18.7672 -13.0178 -11.4982  -9.6003  -9.1638  -8.7775
    -7.9384  -6.8765  -6.2021  -5.2558   0.3090   0.6009   1.8872   2.5389
     3.6025

          k = 0.0500 0.4330 0.0000 ( 14458 PWs)   bands (ev):

   -21.1186 -19.7200 -18.8295 -13.0926 -11.0919  -9.2265  -8.8355  -8.5196
    -8.4449  -7.2274  -6.6234  -5.3484   0.3764   0.8484   2.2925   2.8542
     3.3233

          k = 0.0500 0.4907 0.0000 ( 14454 PWs)   bands (ev):

   -20.8789 -20.0226 -18.8726 -13.1429 -10.6361  -9.0949  -8.8089  -8.5548
    -8.1690  -7.5969  -7.0386  -5.4122   0.3932   1.1753   2.3658   3.1527
     3.2902

          k = 0.0500 0.5485 0.0000 ( 14443 PWs)   bands (ev):

   -20.6247 -20.3095 -18.8947 -13.1681 -10.1453  -9.6084  -8.5299  -8.3495
    -7.9755  -7.8147  -7.4368  -5.4446   0.3969   1.5124   2.0734   3.4516
     3.5066

          k = 0.1000 0.1732 0.0000 ( 14537 PWs)   bands (ev):

   -21.8260 -18.5620 -18.5320 -12.5194 -12.4511 -10.6412 -10.5245  -9.4343
    -6.4138  -5.9947  -4.9363  -4.9072  -0.2619   0.4607   0.5451   1.7697
     2.9736

          k = 0.1000 0.2309 0.0000 ( 14509 PWs)   bands (ev):

   -21.7133 -18.7430 -18.6428 -12.6048 -12.3551 -10.3137 -10.1402  -9.2846
    -6.8228  -6.1885  -5.2198  -5.0743  -0.1020   0.5644   0.8033   1.9484
     3.1508

          k = 0.1000 0.2887 0.0000 ( 14507 PWs)   bands (ev):

   -21.5697 -18.9811 -18.7424 -12.7170 -12.1348  -9.9784  -9.7189  -9.0931
    -7.2985  -6.4285  -5.5761  -5.2239   0.0983   0.6273   1.1660   2.1740
     3.3716

          k = 0.1000 0.3464 0.0000 ( 14494 PWs)   bands (ev):

   -21.3964 -19.2541 -18.8313 -12.8163 -11.8303  -9.6306  -9.3082  -8.8612
    -7.8168  -6.7091  -5.9708  -5.3562   0.3255   0.6827   1.5897   2.4425
     3.6050

          k = 0.1000 0.4041 0.0000 ( 14474 PWs)   bands (ev):

   -21.1951 -19.5470 -18.9050 -12.8966 -11.4559  -9.2759  -8.9442  -8.5955
    -8.3489  -7.0234  -6.3834  -5.4647   0.5173   0.7983   2.0325   2.7447
     3.5172

          k = 0.1000 0.4619 0.0000 ( 14451 PWs)   bands (ev):

   -20.9680 -19.8469 -18.9599 -12.9553 -11.0246  -9.0313  -8.8167  -8.6214
    -8.2850  -7.3631  -6.7978  -5.5450   0.5886   1.0618   2.3674   3.0328
     3.2455

          k = 0.1000 0.5196 0.0000 ( 14450 PWs)   bands (ev):

   -20.7198 -20.1416 -18.9937 -12.9909 -10.5485  -9.5022  -8.5521  -8.4016
    -7.9572  -7.7158  -7.2021  -5.5943   0.6060   1.3976   2.2606   3.2626
     3.4218

          k = 0.1000 0.5774 0.0000 ( 14442 PWs)   bands (ev):

   -20.5076 -20.3698 -19.0052 -13.0029 -10.0801  -9.9909  -8.4314  -8.1532
    -8.0234  -7.6216  -7.5572  -5.6109   0.6095   1.6429   2.0285   3.4877
     3.5156

          k = 0.1500 0.2598 0.0000 ( 14527 PWs)   bands (ev):

   -21.5856 -18.8744 -18.8191 -12.4513 -12.4342  -9.9484  -9.8019  -9.1144
    -7.2654  -6.3807  -5.4030  -5.3564   0.0831   0.8029   0.9487   2.1488
     3.3480

          k = 0.1500 0.3175 0.0000 ( 14505 PWs)   bands (ev):

   -21.4278 -19.0985 -18.9394 -12.5306 -12.1898  -9.6017  -9.4160  -8.9034
    -7.7638  -6.6106  -5.7426  -5.5242   0.3095   0.9159   1.2759   2.3934
     3.5777

          k = 0.1500 0.3753 0.0000 ( 14492 PWs)   bands (ev):

   -21.2414 -19.3699 -19.0281 -12.6085 -11.8569  -9.2672  -9.0368  -8.6555
    -8.2890  -6.8747  -6.1335  -5.6510   0.5672   0.9739   1.6987   2.6758
     3.7085

          k = 0.1500 0.4330 0.0000 ( 14466 PWs)   bands (ev):

   -21.0282 -19.6590 -19.0966 -12.6702 -11.4578  -9.0200  -8.7833  -8.6771
    -8.3630  -7.1677  -6.5385  -5.7493   0.8086   1.0647   2.1288   2.9736
     3.3877

          k = 0.1500 0.4907 0.0000 ( 14443 PWs)   bands (ev):

   -20.7915 -19.9517 -19.1435 -12.7126 -11.0054  -9.4488  -8.5640  -8.4301
    -8.0504  -7.4828  -6.9418  -5.8164   0.9089   1.3159   2.3691   3.0950
     3.3441

          k = 0.1500 0.5485 0.0000 ( 14455 PWs)   bands (ev):

   -20.5414 -20.2314 -19.1673 -12.7342 -10.5123  -9.9858  -8.3745  -8.1554
    -7.8155  -7.7024  -7.3309  -5.8505   0.9298   1.6342   2.1740   3.3224
     3.4937

          k = 0.2000 0.3464 0.0000 ( 14481 PWs)   bands (ev):

   -21.2568 -19.2294 -19.1516 -12.2598 -12.2450  -9.2496  -9.0803  -8.6759
    -8.2707  -6.8204  -5.9108  -5.8546   0.5618   1.2219   1.4195   2.6523
     3.7680

          k = 0.2000 0.4041 0.0000 ( 14463 PWs)   bands (ev):

   -21.0585 -19.4707 -19.2621 -12.3095 -11.8960  -9.0138  -8.7559  -8.7168
    -8.4020  -7.0575  -6.2704  -5.9959   0.8479   1.3379   1.7829   2.9376
     3.6450

          k = 0.2000 0.4619 0.0000 ( 14467 PWs)   bands (ev):

   -20.8354 -19.7499 -19.3262 -12.3534 -11.4767  -9.4249  -8.5657  -8.4477
    -8.1072  -7.3190  -6.6633  -6.0830   1.1414   1.4036   2.1899   3.1488
     3.3357

          k = 0.2000 0.5196 0.0000 ( 14467 PWs)   bands (ev):

   -20.5926 -20.0310 -19.3642 -12.3809 -11.0073  -9.9662  -8.3357  -8.1867
    -7.7837  -7.5989  -7.0523  -6.1357   1.3017   1.6002   2.3421   3.0943
     3.4632

          k = 0.2000 0.5774 0.0000 ( 14464 PWs)   bands (ev):

   -20.3869 -20.2502 -19.3768 -12.3902 -10.5125 -10.4866  -8.2563  -7.9242
    -7.8689  -7.4581  -7.3977  -6.1533   1.3252   1.8130   2.1934   3.3381
     3.3646

          k = 0.2500 0.4330 0.0000 ( 14478 PWs)   bands (ev):

   -20.8501 -19.5825 -19.4882 -11.9489 -11.9192  -9.4182  -8.5648  -8.4543
    -8.1261  -7.2604  -6.4013  -6.3430   1.1583   1.6720   1.9219   3.1910
     3.5249

          k = 0.2500 0.4907 0.0000 ( 14459 PWs)   bands (ev):

   -20.6200 -19.8195 -19.5750 -11.9628 -11.4976  -9.9589  -8.3136  -8.2049
    -7.8201  -7.4826  -6.7555  -6.4408   1.4822   1.7827   2.2467   3.1274
     3.4070

          k = 0.2500 0.5485 0.0000 ( 14462 PWs)   bands (ev):

   -20.3790 -20.0798 -19.6049 -11.9775 -11.0147 -10.4974  -8.1588  -7.9695
    -7.7221  -7.4880  -7.1267  -6.4782   1.7134   1.8792   2.3535   3.0931
     3.3439

          k = 0.3000 0.5196 0.0000 ( 14450 PWs)   bands (ev):

   -20.3884 -19.8955 -19.7972 -11.5276 -11.4990 -10.4974  -8.0995  -8.0196
    -7.6604  -7.5069  -6.8355  -6.7806   1.8098   2.0353   2.3953   3.0678
     3.1051

[...]
     Harris-Foulkes estimate   =     -81.21191795 Ry
     estimated scf accuracy    <          1.2E-09 Ry

     iteration #  9     ecut=    65.00 Ry     beta=0.70
     Davidson diagonalization with overlap
     ethr =  4.79E-12,  avg # of iterations =  2.5

     total cpu time spent up to now is     1092.9 secs

     total energy              =     -81.21191797 Ry
     Harris-Foulkes estimate   =     -81.21191797 Ry
     estimated scf accuracy    <          4.6E-10 Ry

     iteration # 10     ecut=    65.00 Ry     beta=0.70
     Davidson diagonalization with overlap
     ethr =  1.85E-12,  avg # of iterations =  1.5

     total cpu time spent up to now is     1095.8 secs

     End of self-consistent calculation

          k = 0.0000 0.0000 0.0000 ( 14557 PWs)   bands (ev):

   -20.7473 -17.0063 -17.0061 -11.0238 -11.0202 -10.2152 -10.2151  -8.3501
    -4.4132  -4.4131  -3.0488  -3.0487  -1.5187   0.7925   1.6640   1.6641
     2.0309

          k = 0.0000 0.0577 0.0000 ( 14503 PWs)   bands (ev):

   -20.7309 -17.0332 -17.0291 -11.0788 -11.0571 -10.1186 -10.1029  -8.3282
    -4.4824  -4.4461  -3.0941  -3.0869  -1.4953   0.8185   1.6868   1.6978
     2.0574

          k = 0.0000 0.1155 0.0000 ( 14502 PWs)   bands (ev):

   -20.6819 -17.1203 -17.0885 -11.2151 -11.0874  -9.8973  -9.8138  -8.2629
    -4.6839  -4.5439  -3.2384  -3.1839  -1.4250   0.8964   1.7333   1.8155
     2.1369

          k = 0.0000 0.1732 0.0000 ( 14496 PWs)   bands (ev):

   -20.6006 -17.2697 -17.1701 -11.3722 -11.0437  -9.6151  -9.4291  -8.1544
    -4.9998  -4.7035  -3.4800  -3.3142  -1.3083   1.0253   1.7775   2.0287
     2.2683

          k = 0.0000 0.2309 0.0000 ( 14516 PWs)   bands (ev):

   -20.4875 -17.4761 -17.2616 -11.5223 -10.9068  -9.2964  -8.9997  -8.0034
    -5.4064  -4.9201  -3.8027  -3.4568  -1.1454   1.2039   1.8057   2.3306
     2.4507

          k = 0.0000 0.2887 0.0000 ( 14486 PWs)   bands (ev):

   -20.3434 -17.7276 -17.3526 -11.6553 -10.6789  -8.9510  -8.5602  -7.8106
    -5.8792  -5.1872  -4.1830  -3.5960  -0.9367   1.4299   1.8157   2.6734
     2.7025

          k = 0.0000 0.3464 0.0000 ( 14486 PWs)   bands (ev):

   -20.1694 -18.0103 -17.4359 -11.7668 -10.3706  -8.5848  -8.1408  -7.5772
    -6.3962  -5.4971  -4.5979  -3.7210  -0.6831   1.6935   1.8191   2.8461
     3.0066

          k = 0.0000 0.4041 0.0000 ( 14490 PWs)   bands (ev):

   -19.9667 -18.3105 -17.5056 -11.8548  -9.9945  -8.2023  -7.7708  -7.3049
    -6.9387  -5.8418  -5.0282  -3.8244  -0.3861   1.7837   2.0288   2.3978
     3.3121

          k = 0.0000 0.4619 0.0000 ( 14468 PWs)   bands (ev):

   -19.7374 -18.6164 -17.5579 -11.9183  -9.5625  -7.8078  -7.4912  -7.4787
    -6.9955  -6.2126  -5.4587  -3.9013  -0.0502   1.7678   1.8720   2.3687
     3.6834

          k = 0.0000 0.5196 0.0000 ( 14446 PWs)   bands (ev):

   -19.4839 -18.9185 -17.5902 -11.9565  -9.0861  -8.0403  -7.4058  -7.2910
    -6.6521  -6.6019  -5.8781  -3.9485   0.3071   1.3854   1.7631   2.7014
     4.0473

          k = 0.0000-0.5774 0.0000 ( 14464 PWs)   bands (ev):

   -19.2109 -19.2082 -17.6012 -11.9693  -8.5767  -8.5742  -7.2263  -7.0037
    -7.0001  -6.2821  -6.2739  -3.9645   0.5427   1.1084   1.7585   2.8749
     3.9143

          k = 0.0500 0.0866 0.0000 ( 14505 PWs)   bands (ev):

   -20.6983 -17.0805 -17.0802 -11.1321 -11.1297  -9.9332  -9.9322  -8.2847
    -4.6190  -4.5102  -3.1721  -3.1716  -1.4484   0.8705   1.7472   1.7479
     2.1104

          k = 0.0500 0.1443 0.0000 ( 14514 PWs)   bands (ev):

   -20.6331 -17.1939 -17.1559 -11.2633 -11.1305  -9.6817  -9.6026  -8.1978
    -4.8808  -4.6355  -3.3575  -3.2936  -1.3550   0.9739   1.8050   1.9017
     2.2159

          k = 0.0500 0.2021 0.0000 ( 14513 PWs)   bands (ev):

   -20.5359 -17.3686 -17.2465 -11.4079 -11.0421  -9.3851  -9.1978  -8.0680
    -5.2457  -4.8184  -3.6352  -3.4360  -1.2151   1.1276   1.8499   2.1524
     2.3727

          k = 0.0500 0.2598 0.0000 ( 14502 PWs)   bands (ev):

   -20.4073 -17.5956 -17.3410 -11.5438 -10.8599  -9.0575  -8.7629  -7.8960
    -5.6891  -5.0540  -3.9843  -3.5812  -1.0293   1.3301   1.8746   2.4844
     2.5796

          k = 0.0500 0.3175 0.0000 ( 14494 PWs)   bands (ev):

   -20.2482 -17.8617 -17.4305 -11.6623 -10.5913  -8.7064  -8.3316  -7.6830
    -6.1874  -5.3356  -4.3807  -3.7163  -0.7980   1.5782   1.8820   2.8100
     2.8661

          k = 0.0500 0.3753 0.0000 ( 14505 PWs)   bands (ev):

   -20.0599 -18.1527 -17.5087 -11.7596 -10.2481  -8.3368  -7.9341  -7.4302
    -6.7202  -5.6557  -4.8027  -3.8325  -0.5224   1.8322   1.9143   2.6712
     3.1628

          k = 0.0500 0.4330 0.0000 ( 14458 PWs)   bands (ev):

   -19.8439 -18.4554 -17.5708 -11.8337  -9.8428  -7.9532  -7.6000  -7.2703
    -7.1393  -6.0063  -5.2328  -3.9240  -0.2050   1.8489   2.1461   2.2141
     3.5093

          k = 0.0500 0.4907 0.0000 ( 14454 PWs)   bands (ev):

   -19.6025 -18.7593 -17.6139 -11.8835  -9.3873  -7.8233  -7.5604  -7.3575
    -6.8129  -6.3794  -5.6576  -3.9869   0.1461   1.6303   1.8420   2.5583
     3.8974

          k = 0.0500 0.5485 0.0000 ( 14443 PWs)   bands (ev):

   -19.3386 -19.0559 -17.6359 -11.9085  -8.8921  -8.3675  -7.2296  -7.1632
    -6.7674  -6.4542  -6.0672  -4.0189   0.4851   1.2097   1.8336   2.8412
     3.9791

          k = 0.1000 0.1732 0.0000 ( 14537 PWs)   bands (ev):

   -20.5521 -17.2873 -17.2866 -11.2312 -11.2300  -9.3386  -9.3368  -8.0896
    -5.1958  -4.7787  -3.5048  -3.5033  -1.2384   1.1021   1.9773   1.9805
     2.3466

          k = 0.1000 0.2309 0.0000 ( 14509 PWs)   bands (ev):

   -20.4394 -17.4774 -17.3872 -11.3478 -11.1026  -9.0370  -8.9282  -7.9389
    -5.6035  -4.9716  -3.8017  -3.6582  -1.0757   1.2799   2.0334   2.2514
     2.5278

          k = 0.1000 0.2887 0.0000 ( 14507 PWs)   bands (ev):

   -20.2958 -17.7162 -17.4851 -11.4606 -10.8818  -8.7102  -8.4987  -7.7467
    -6.0786  -5.2104  -4.1636  -3.8057  -0.8671   1.5053   2.0632   2.5983
     2.7575

          k = 0.1000 0.3464 0.0000 ( 14494 PWs)   bands (ev):

   -20.1224 -17.9891 -17.5733 -11.5592 -10.5784  -8.3632  -8.0844  -7.5141
    -6.5983  -5.4895  -4.5653  -3.9366  -0.6136   1.7741   2.0748   2.8592
     3.0440

          k = 0.1000 0.4041 0.0000 ( 14474 PWs)   bands (ev):

   -19.9207 -18.2819 -17.6465 -11.6387 -10.2052  -8.0012  -7.7170  -7.2429
    -7.1435  -5.8025  -4.9864  -4.0440  -0.3165   2.0311   2.1260   2.4567
     3.3798

          k = 0.1000 0.4619 0.0000 ( 14451 PWs)   bands (ev):

   -19.6927 -18.5824 -17.7012 -11.6968  -9.7748  -7.6986  -7.6287  -7.4263
    -6.9349  -6.1421  -5.4104  -4.1234   0.0200   1.9253   2.0536   2.4401
     3.7451

          k = 0.1000 0.5196 0.0000 ( 14450 PWs)   bands (ev):

   -19.4409 -18.8805 -17.7349 -11.7321  -9.2985  -8.2502  -7.2510  -7.2391
    -6.5933  -6.5013  -5.8252  -4.1722   0.3792   1.4460   2.0454   2.7669
     3.9516

          k = 0.1000 0.5774 0.0000 ( 14442 PWs)   bands (ev):

   -19.1700 -19.1673 -17.7463 -11.7439  -8.7877  -8.7860  -7.1746  -6.8744
    -6.8717  -6.2258  -6.2177  -4.1886   0.6197   1.1640   2.0426   2.9361
     3.9821

          k = 0.1500 0.2598 0.0000 ( 14527 PWs)   bands (ev):

   -20.3117 -17.5863 -17.5851 -11.1882 -11.1878  -8.6322  -8.6300  -7.7680
    -6.0456  -5.1632  -3.9655  -3.9627  -0.8902   1.4806   2.3140   2.3224
     2.7320

          k = 0.1500 0.3175 0.0000 ( 14505 PWs)   bands (ev):

   -20.1538 -17.8292 -17.6856 -11.2750 -10.9360  -8.3133  -8.2144  -7.5563
    -6.5454  -5.3922  -4.3289  -4.1114  -0.6592   1.7275   2.3554   2.6689
     2.9795

          k = 0.1500 0.3753 0.0000 ( 14492 PWs)   bands (ev):

   -19.9671 -18.1030 -17.7713 -11.3520 -10.6043  -7.9801  -7.8245  -7.3053
    -7.0808  -5.6550  -4.7286  -4.2361  -0.3837   2.0151   2.3726   2.7580
     3.2291

          k = 0.1500 0.4330 0.0000 ( 14466 PWs)   bands (ev):

   -19.7534 -18.3931 -17.8387 -11.4130 -10.2062  -7.6374  -7.6333  -7.4943
    -7.0169  -5.9468  -5.1430  -4.3334  -0.0658   2.2580   2.3103   2.4119
     3.5517

          k = 0.1500 0.4907 0.0000 ( 14443 PWs)   bands (ev):

   -19.5149 -18.6877 -17.8850 -11.4549  -9.7547  -8.1898  -7.2877  -7.2536
    -6.6938  -6.2620  -5.5566  -4.3998   0.2874   1.7531   2.3542   2.6964
     3.5015

          k = 0.1500 0.5485 0.0000 ( 14455 PWs)   bands (ev):

   -19.2548 -18.9773 -17.9086 -11.4763  -9.2610  -8.7359  -7.1265  -6.9385
    -6.5946  -6.3394  -5.9582  -4.4335   0.6340   1.3243   2.3539   2.9649
     3.4630

          k = 0.2000 0.3464 0.0000 ( 14481 PWs)   bands (ev):

   -19.9827 -17.9294 -17.9278 -10.9978 -10.9976  -7.9167  -7.9146  -7.3262
    -7.0621  -5.6014  -4.4745  -4.4703  -0.4061   1.9933   2.6895   2.7110
     3.2002

          k = 0.2000 0.4041 0.0000 ( 14463 PWs)   bands (ev):

   -19.7839 -18.1989 -18.0098 -11.0537 -10.6428  -7.6089  -7.6055  -7.5567
    -7.0581  -5.8376  -4.8646  -4.5885  -0.1091   2.2947   2.6130   2.7045
     3.1904

          k = 0.2000 0.4619 0.0000 ( 14467 PWs)   bands (ev):

   -19.5597 -18.4827 -18.0698 -11.0971 -10.2245  -8.1620  -7.2947  -7.2705
    -6.7545  -6.0980  -5.2682  -4.6738   0.2286   2.1054   2.5932   2.7178
     3.1272

          k = 0.2000 0.5196 0.0000 ( 14467 PWs)   bands (ev):

   -19.3130 -18.7686 -18.1065 -11.1243  -9.7557  -8.7133  -7.0853  -6.9822
    -6.4186  -6.3788  -5.6685  -4.7257   0.5934   1.6211   2.6488   2.9451
     3.0975

          k = 0.2000 0.5774 0.0000 ( 14464 PWs)   bands (ev):

   -19.0489 -19.0463 -18.1189 -11.1335  -9.2486  -9.2480  -7.0211  -6.6759
    -6.6747  -6.0585  -6.0507  -4.7432   0.8502   1.3232   2.6453   3.0396
     3.1407

          k = 0.2500 0.4330 0.0000 ( 14478 PWs)   bands (ev):

   -19.5747 -18.2744 -18.2724 -10.6800 -10.6796  -8.1540  -7.2870  -7.2852
    -6.7747  -6.0400  -4.9722  -4.9667   0.2085   2.4169   2.5524   2.6236
     3.2921

          k = 0.2500 0.4907 0.0000 ( 14459 PWs)   bands (ev):

   -19.3423 -18.5483 -18.3241 -10.7075 -10.2449  -8.7048  -7.0496  -7.0169
    -6.4584  -6.2616  -5.3595  -5.0406   0.5642   1.9678   2.4452   2.9095
     3.3282

          k = 0.2500 0.5485 0.0000 ( 14462 PWs)   bands (ev):

   -19.0903 -18.8234 -18.3499 -10.7222  -9.7626  -9.2453  -6.9242  -6.7536
    -6.5005  -6.1130  -5.7441  -5.0766   0.9268   1.5323   2.3997   3.1137
     3.3660

          k = 0.3000 0.5196 0.0000 ( 14450 PWs)   bands (ev):

   -19.1046 -18.5894 -18.5871 -10.2598 -10.2594  -9.2450  -6.8360  -6.8349
    -6.4393  -6.1325  -5.4180  -5.4116   0.9331   1.7614   2.1196   3.1489
     3.7584

          k = 0.3000 0.5774 0.0000 ( 14434 PWs)   bands (ev):

   -18.8524 -18.8499 -18.6016 -10.2648  -9.7677  -9.7676  -6.7723  -6.6312
    -6.6311  -5.7858  -5.7786  -5.4333   1.2324   1.4861   2.0367   3.2478
     3.7996

          k = 0.0500-0.1443 0.0000 ( 14514 PWs)   bands (ev):

   -20.6331 -17.1939 -17.1559 -11.2633 -11.1305  -9.6817  -9.6026  -8.1978
    -4.8808  -4.6355  -3.3575  -3.2936  -1.3550   0.9739   1.8050   1.9017
     2.2159

          k = 0.0500-0.2021 0.0000 ( 14513 PWs)   bands (ev):

   -20.5359 -17.3686 -17.2465 -11.4079 -11.0421  -9.3851  -9.1978  -8.0680
    -5.2457  -4.8185  -3.6352  -3.4360  -1.2151   1.1276   1.8499   2.1524
     2.3727

          k = 0.0500-0.2598 0.0000 ( 14502 PWs)   bands (ev):

   -20.4073 -17.5956 -17.3410 -11.5438 -10.8599  -9.0575  -8.7629  -7.8960
    -5.6891  -5.0540  -3.9843  -3.5812  -1.0293   1.3301   1.8746   2.4844
     2.5796

          k = 0.0500-0.3175 0.0000 ( 14494 PWs)   bands (ev):

   -20.2482 -17.8617 -17.4305 -11.6623 -10.5913  -8.7064  -8.3316  -7.6830
    -6.1874  -5.3356  -4.3807  -3.7163  -0.7980   1.5782   1.8820   2.8100
     2.8661

          k = 0.0500-0.3753 0.0000 ( 14505 PWs)   bands (ev):

   -20.0599 -18.1527 -17.5087 -11.7596 -10.2481  -8.3368  -7.9341  -7.4302
    -6.7202  -5.6557  -4.8027  -3.8325  -0.5224   1.8322   1.9143   2.6712
     3.1628

          k = 0.0500-0.4330 0.0000 ( 14458 PWs)   bands (ev):

   -19.8439 -18.4554 -17.5708 -11.8337  -9.8428  -7.9532  -7.6000  -7.2703
    -7.1393  -6.0063  -5.2328  -3.9240  -0.2050   1.8489   2.1461   2.2141
     3.5093

          k = 0.0500-0.4907 0.0000 ( 14454 PWs)   bands (ev):

   -19.6025 -18.7593 -17.6139 -11.8835  -9.3873  -7.8233  -7.5604  -7.3575
    -6.8129  -6.3795  -5.6576  -3.9869   0.1461   1.6303   1.8420   2.5583
     3.8974

          k = 0.0500-0.5485 0.0000 ( 14443 PWs)   bands (ev):

   -19.3386 -19.0559 -17.6359 -11.9085  -8.8921  -8.3675  -7.2296  -7.1632
    -6.7674  -6.4542  -6.0672  -4.0189   0.4851   1.2097   1.8336   2.8412
     3.9791

          k = 0.1000-0.2309 0.0000 ( 14509 PWs)   bands (ev):

   -20.4394 -17.4774 -17.3872 -11.3478 -11.1026  -9.0370  -8.9282  -7.9389
    -5.6035  -4.9716  -3.8017  -3.6582  -1.0757   1.2799   2.0334   2.2514
     2.5278

          k = 0.1000-0.2887 0.0000 ( 14507 PWs)   bands (ev):

   -20.2958 -17.7162 -17.4851 -11.4606 -10.8818  -8.7102  -8.4987  -7.7467
    -6.0786  -5.2104  -4.1636  -3.8057  -0.8671   1.5053   2.0632   2.5983
     2.7575

          k = 0.1000-0.3464 0.0000 ( 14494 PWs)   bands (ev):

   -20.1224 -17.9891 -17.5733 -11.5592 -10.5784  -8.3632  -8.0844  -7.5141
    -6.5983  -5.4895  -4.5653  -3.9366  -0.6136   1.7741   2.0748   2.8592
     3.0440

          k = 0.1000-0.4041 0.0000 ( 14474 PWs)   bands (ev):

   -19.9207 -18.2819 -17.6465 -11.6387 -10.2052  -8.0012  -7.7170  -7.2429
    -7.1435  -5.8025  -4.9864  -4.0440  -0.3165   2.0311   2.1260   2.4567
     3.3798

          k = 0.1000-0.4619 0.0000 ( 14451 PWs)   bands (ev):

   -19.6927 -18.5824 -17.7012 -11.6968  -9.7748  -7.6986  -7.6287  -7.4263
    -6.9349  -6.1421  -5.4104  -4.1234   0.0200   1.9253   2.0536   2.4401
     3.7451

          k = 0.1000-0.5196 0.0000 ( 14450 PWs)   bands (ev):

   -19.4409 -18.8805 -17.7349 -11.7321  -9.2985  -8.2502  -7.2510  -7.2391
    -6.5933  -6.5013  -5.8252  -4.1722   0.3792   1.4460   2.0454   2.7669
     3.9516

          k = 0.1500-0.3175 0.0000 ( 14505 PWs)   bands (ev):

   -20.1538 -17.8292 -17.6856 -11.2750 -10.9360  -8.3133  -8.2144  -7.5563
    -6.5454  -5.3922  -4.3289  -4.1114  -0.6592   1.7275   2.3554   2.6689
     2.9795

          k = 0.1500-0.3753 0.0000 ( 14492 PWs)   bands (ev):

   -19.9671 -18.1030 -17.7713 -11.3520 -10.6043  -7.9801  -7.8245  -7.3053
    -7.0808  -5.6550  -4.7286  -4.2361  -0.3837   2.0151   2.3726   2.7580
     3.2291

          k = 0.1500-0.4330 0.0000 ( 14466 PWs)   bands (ev):

   -19.7534 -18.3931 -17.8387 -11.4130 -10.2062  -7.6374  -7.6332  -7.4943
    -7.0169  -5.9468  -5.1429  -4.3334  -0.0658   2.2580   2.3103   2.4119
     3.5517

          k = 0.1500-0.4907 0.0000 ( 14443 PWs)   bands (ev):

   -19.5149 -18.6877 -17.8850 -11.4550  -9.7547  -8.1898  -7.2877  -7.2536
    -6.6938  -6.2620  -5.5566  -4.3998   0.2874   1.7531   2.3542   2.6964
     3.5015

          k = 0.1500-0.5485 0.0000 ( 14455 PWs)   bands (ev):

   -19.2548 -18.9773 -17.9086 -11.4763  -9.2610  -8.7359  -7.1265  -6.9384
    -6.5946  -6.3394  -5.9582  -4.4335   0.6340   1.3243   2.3539   2.9649
     3.4630

          k = 0.2000-0.4041 0.0000 ( 14463 PWs)   bands (ev):

   -19.7839 -18.1989 -18.0098 -11.0537 -10.6428  -7.6090  -7.6054  -7.5567
    -7.0581  -5.8376  -4.8646  -4.5885  -0.1091   2.2947   2.6130   2.7045
     3.1904

          k = 0.2000-0.4619 0.0000 ( 14467 PWs)   bands (ev):

   -19.5597 -18.4827 -18.0698 -11.0971 -10.2245  -8.1620  -7.2947  -7.2705
    -6.7545  -6.0981  -5.2682  -4.6738   0.2286   2.1054   2.5932   2.7178
     3.1272

          k = 0.2000-0.5196 0.0000 ( 14467 PWs)   bands (ev):

   -19.3130 -18.7686 -18.1065 -11.1243  -9.7557  -8.7133  -7.0853  -6.9822
    -6.4186  -6.3789  -5.6685  -4.7257   0.5934   1.6211   2.6488   2.9451
     3.0975

          k = 0.2500-0.4907 0.0000 ( 14459 PWs)   bands (ev):

   -19.3423 -18.5483 -18.3241 -10.7075 -10.2449  -8.7048  -7.0496  -7.0168
    -6.4584  -6.2616  -5.3595  -5.0406   0.5642   1.9678   2.4452   2.9095
     3.3282

          k = 0.2500-0.5485 0.0000 ( 14462 PWs)   bands (ev):

   -19.0903 -18.8234 -18.3499 -10.7222  -9.7626  -9.2453  -6.9242  -6.7536
    -6.5006  -6.1130  -5.7441  -5.0766   0.9268   1.5323   2.3997   3.1137
     3.3660

     the Fermi energy is    -0.2058 ev

!    total energy              =     -81.21191797 Ry
     Harris-Foulkes estimate   =     -81.21191797 Ry
     estimated scf accuracy    <          1.9E-11 Ry

     The total energy is the sum of the following terms:

     one-electron contribution =    -463.96666935 Ry
     hartree contribution      =     237.64820053 Ry
     xc contribution           =     -26.07364584 Ry
     ewald contribution        =     171.18019686 Ry
     smearing contrib. (-TS)   =      -0.00000018 Ry

     convergence has been achieved in  10 iterations

     Forces acting on atoms (Ry/au):

     atom    1 type  1   force =     0.00005976    0.00000041    0.00004182
     atom    2 type  2   force =     0.00004228    0.00007208   -0.00005199
     atom    3 type  1   force =    -0.00003023    0.00005155    0.00004182
     atom    4 type  2   force =     0.00004128   -0.00007266   -0.00005199
     atom    5 type  1   force =    -0.00002953   -0.00005196    0.00004182
     atom    6 type  2   force =    -0.00008356    0.00000058   -0.00005199
     atom    7 type  3   force =     0.00000000    0.00000000    0.00003051

     Total force =     0.000214     Total SCF correction =     0.000014

     bfgs converged in  23 scf cycles and  22 bfgs steps
     (criteria: energy <  1.0E-05, force <  1.0E-03)

     End of BFGS Geometry Optimization

     Final energy   =     -81.2119179734 Ry
Begin final coordinates

ATOMIC_POSITIONS (angstrom)
B       -1.440249478   2.494146918  -0.331485048
N       -0.719904516   1.247242652  -0.332021043
B        0.720111819   1.246867185  -0.331485048
N        1.440096074  -0.000172779  -0.332021043
B        2.880119329   0.000205067  -0.331485048
N        1.439802332   2.494149297  -0.332021043
Li      -0.000006110   2.494146110   3.700518273
End final coordinates



     Writing output data file BN-Li-TC.save
 
     init_run     :      6.41s CPU      6.51s WALL (       1 calls)
     electrons    :   1049.04s CPU   1063.65s WALL (      23 calls)
     update_pot   :      6.86s CPU      7.61s WALL (      22 calls)
     forces       :      9.26s CPU      9.35s WALL (      23 calls)

     Called by init_run:
     wfcinit      :      5.75s CPU      5.82s WALL (       1 calls)
     potinit      :      0.15s CPU      0.16s WALL (       1 calls)

     Called by electrons:
     c_bands      :    935.73s CPU    947.42s WALL (     287 calls)
     sum_band     :     99.94s CPU    101.35s WALL (     287 calls)
     v_of_rho     :     10.03s CPU     10.15s WALL (     310 calls)
     mix_rho      :      1.32s CPU      1.36s WALL (     287 calls)

     Called by c_bands:
     init_us_2    :      6.36s CPU     10.25s WALL (   40664 calls)
     cegterg      :    910.74s CPU    915.06s WALL (   19516 calls)

     Called by sum_band:

     Called by *egterg:
     h_psi        :    491.93s CPU    496.76s WALL (   72124 calls)
     g_psi        :      2.06s CPU      2.53s WALL (   52540 calls)
     cdiaghg      :    286.97s CPU    287.04s WALL (   70560 calls)

     Called by h_psi:
     add_vuspsi   :     12.68s CPU     19.24s WALL (   72124 calls)

     General routines
     calbec       :     39.46s CPU     36.87s WALL (   78380 calls)
     fft          :      7.43s CPU      7.17s WALL (    4523 calls)
     ffts         :      0.41s CPU      0.30s WALL (     597 calls)
     fftw         :    488.50s CPU    470.95s WALL ( 2006008 calls)
     interpolate  :      1.51s CPU      1.46s WALL (     597 calls)
 
     Parallel routines
     fft_scatter  :    374.58s CPU    290.96s WALL ( 2011128 calls)
 
     PWSCF        : 17m56.76s CPU    18m18.91s WALL

 
   This run was terminated on:  18:44: 0  27Jun2020            

=------------------------------------------------------------------------------=
   JOB DONE.
=------------------------------------------------------------------------------=
